
                                 *****************
                                 * O   R   C   A *
                                 *****************

                                            #,                                       
                                            ###                                      
                                            ####                                     
                                            #####                                    
                                            ######                                   
                                           ########,                                 
                                     ,,################,,,,,                         
                               ,,#################################,,                 
                          ,,##########################################,,             
                       ,#########################################, ''#####,          
                    ,#############################################,,   '####,        
                  ,##################################################,,,,####,       
                ,###########''''           ''''###############################       
              ,#####''   ,,,,##########,,,,          '''####'''          '####       
            ,##' ,,,,###########################,,,                        '##       
           ' ,,###''''                  '''############,,,                           
         ,,##''                                '''############,,,,        ,,,,,,###''
      ,#''                                            '''#######################'''  
     '                                                          ''''####''''         
             ,#######,   #######,   ,#######,      ##                                
            ,#'     '#,  ##    ##  ,#'     '#,    #''#        ######   ,####,        
            ##       ##  ##   ,#'  ##            #'  '#       #        #'  '#        
            ##       ##  #######   ##           ,######,      #####,   #    #        
            '#,     ,#'  ##    ##  '#,     ,#' ,#      #,         ##   #,  ,#        
             '#######'   ##     ##  '#######'  #'      '#     #####' # '####'        



                  #######################################################
                  #                        -***-                        #
                  #          Department of theory and spectroscopy      #
                  #    Directorship and core code : Frank Neese         #
                  #        Max Planck Institute fuer Kohlenforschung    #
                  #                Kaiser Wilhelm Platz 1               #
                  #                 D-45470 Muelheim/Ruhr               #
                  #                      Germany                        #
                  #                                                     #
                  #                  All rights reserved                #
                  #                        -***-                        #
                  #######################################################


                         Program Version 5.0.4 -  RELEASE  -


 With contributions from (in alphabetic order):
   Daniel Aravena         : Magnetic Suceptibility
   Michael Atanasov       : Ab Initio Ligand Field Theory (pilot matlab implementation)
   Alexander A. Auer      : GIAO ZORA, VPT2 properties, NMR spectrum
   Ute Becker             : Parallelization
   Giovanni Bistoni       : ED, misc. LED, open-shell LED, HFLD
   Martin Brehm           : Molecular dynamics
   Dmytro Bykov           : SCF Hessian
   Vijay G. Chilkuri      : MRCI spin determinant printing, contributions to CSF-ICE
   Dipayan Datta          : RHF DLPNO-CCSD density
   Achintya Kumar Dutta   : EOM-CC, STEOM-CC
   Dmitry Ganyushin       : Spin-Orbit,Spin-Spin,Magnetic field MRCI
   Miquel Garcia          : C-PCM and meta-GGA Hessian, CC/C-PCM, Gaussian charge scheme
   Yang Guo               : DLPNO-NEVPT2, F12-NEVPT2, CIM, IAO-localization
   Andreas Hansen         : Spin unrestricted coupled pair/coupled cluster methods
   Benjamin Helmich-Paris : MC-RPA, TRAH-SCF, COSX integrals
   Lee Huntington         : MR-EOM, pCC
   Robert Izsak           : Overlap fitted RIJCOSX, COSX-SCS-MP3, EOM
   Marcus Kettner         : VPT2
   Christian Kollmar      : KDIIS, OOCD, Brueckner-CCSD(T), CCSD density, CASPT2, CASPT2-K
   Simone Kossmann        : Meta GGA functionals, TD-DFT gradient, OOMP2, MP2 Hessian
   Martin Krupicka        : Initial AUTO-CI
   Lucas Lang             : DCDCAS
   Marvin Lechner         : AUTO-CI (C++ implementation), FIC-MRCC
   Dagmar Lenk            : GEPOL surface, SMD
   Dimitrios Liakos       : Extrapolation schemes; Compound Job, initial MDCI parallelization
   Dimitrios Manganas     : Further ROCIS development; embedding schemes
   Dimitrios Pantazis     : SARC Basis sets
   Anastasios Papadopoulos: AUTO-CI, single reference methods and gradients
   Taras Petrenko         : DFT Hessian,TD-DFT gradient, ASA, ECA, R-Raman, ABS, FL, XAS/XES, NRVS
   Peter Pinski           : DLPNO-MP2, DLPNO-MP2 Gradient
   Christoph Reimann      : Effective Core Potentials
   Marius Retegan         : Local ZFS, SOC
   Christoph Riplinger    : Optimizer, TS searches, QM/MM, DLPNO-CCSD(T), (RO)-DLPNO pert. Triples
   Tobias Risthaus        : Range-separated hybrids, TD-DFT gradient, RPA, STAB
   Michael Roemelt        : Original ROCIS implementation
   Masaaki Saitow         : Open-shell DLPNO-CCSD energy and density
   Barbara Sandhoefer     : DKH picture change effects
   Avijit Sen             : IP-ROCIS
   Kantharuban Sivalingam : CASSCF convergence, NEVPT2, FIC-MRCI
   Bernardo de Souza      : ESD, SOC TD-DFT
   Georgi Stoychev        : AutoAux, RI-MP2 NMR, DLPNO-MP2 response
   Willem Van den Heuvel  : Paramagnetic NMR
   Boris Wezisla          : Elementary symmetry handling
   Frank Wennmohs         : Technical directorship


 We gratefully acknowledge several colleagues who have allowed us to
 interface, adapt or use parts of their codes:
   Stefan Grimme, W. Hujo, H. Kruse, P. Pracht,  : VdW corrections, initial TS optimization,
                  C. Bannwarth, S. Ehlert          DFT functionals, gCP, sTDA/sTD-DF
   Ed Valeev, F. Pavosevic, A. Kumar             : LibInt (2-el integral package), F12 methods
   Garnet Chan, S. Sharma, J. Yang, R. Olivares  : DMRG
   Ulf Ekstrom                                   : XCFun DFT Library
   Mihaly Kallay                                 : mrcc  (arbitrary order and MRCC methods)
   Jiri Pittner, Ondrej Demel                    : Mk-CCSD
   Frank Weinhold                                : gennbo (NPA and NBO analysis)
   Christopher J. Cramer and Donald G. Truhlar   : smd solvation model
   Lars Goerigk                                  : TD-DFT with DH, B97 family of functionals
   V. Asgeirsson, H. Jonsson                     : NEB implementation
   FAccTs GmbH                                   : IRC, NEB, NEB-TS, DLPNO-Multilevel, CI-OPT
                                                   MM, QMMM, 2- and 3-layer-ONIOM, Crystal-QMMM,
                                                   LR-CPCM, SF, NACMEs, symmetry and pop. for TD-DFT,
                                                   nearIR, NL-DFT gradient (VV10), updates on ESD,
                                                   ML-optimized integration grids
   S Lehtola, MJT Oliveira, MAL Marques          : LibXC Library
   Liviu Ungur et al                             : ANISO software


 Your calculation uses the libint2 library for the computation of 2-el integrals
 For citations please refer to: http://libint.valeyev.net

 Your ORCA version has been built with support for libXC version: 5.1.0
 For citations please refer to: https://tddft.org/programs/libxc/

 This ORCA versions uses:
   CBLAS   interface :  Fast vector & matrix operations
   LAPACKE interface :  Fast linear algebra routines
   SCALAPACK package :  Parallel linear algebra routines
   Shared memory     :  Shared parallel matrices
   BLAS/LAPACK       :  OpenBLAS 0.3.15  USE64BITINT DYNAMIC_ARCH NO_AFFINITY Zen SINGLE_THREADED
        Core in use  :  Zen
   Copyright (c) 2011-2014, The OpenBLAS Project




***************************************
The coordinates will be read from file: geom.xyz
***************************************


Your calculation utilizes the atom-pairwise dispersion correction
with the Becke-Johnson damping scheme (D3BJ)
Cite in your paper:
S.Grimme, S.Ehrlich, L.Goerigk, J Comput Chem, (2011), 32, 1456–1465 
S.Grimme, J.Antony, S.Ehrlich and H.Krieg, J.Chem.Phys., 132, (2010), 154104 
   

================================================================================

----- Orbital basis set information -----
Your calculation utilizes the basis: cc-pwCVTZ 
             H : cc-pVTZ. Obtained from the ccRepo (grant-hill.group.shef.ac.uk/ccrepo) Feb. 2017
                 T. H. Dunning, Jr., J. Chem. Phys. 90, 1007 (1989)
            He : cc-pVTZ. Obtained from the ccRepo (grant-hill.group.shef.ac.uk/ccrepo) Feb. 2017
                 D. E. Woon, T. H. Dunning, Jr., J. Chem. Phys. 100, 2975 (1994)
  Li-Be, Na-Mg : Obtained from the ccRepo (grant-hill.group.shef.ac.uk/ccrepo) Feb. 2017
                 B. P. Prascher, D. E. Woon, K. A. Peterson, T. H. Dunning, Jr., A. K. Wilson, Theor. Chem. Acc. 128, 69 (2011)
          B-Ne : Obtained from the ccRepo (grant-hill.group.shef.ac.uk/ccrepo) Feb. 2017
                 K. A. Peterson, T. H. Dunning, Jr., J. Chem. Phys. 117, 10548 (2002)
         Al-Ar : Obtained from the EMSL Basis Set Exchange (bse.pnl.gov) Feb. 2017
                 K. A. Peterson, T. H. Dunning, Jr., J. Chem. Phys. 117, 10548 (2002)
            Ca : Obtained from the Peterson Research Group Website (tyr0.chem.wsu.edu/~kipeters) Feb. 2017
                 J. Koput, K. A. Peterson, J. Phys. Chem. 106, 9595 (2002)
         Sc-Zn : Obtained from the ccRepo (grant-hill.group.shef.ac.uk/ccrepo) Feb. 2017
                 N. B. Balabanov, K. A. Peterson, J. Chem. Phys. 123, 064107 (2005)
                 N. B. Balabanov, K. A. Peterson, J. Chem. Phys. 125, 074110 (2006)
         Ga-Kr : Obtained from the Peterson Research Group Website (tyr0.chem.wsu.edu/~kipeters) Feb. 2017
                 K. A. Peterson, K. E. Yousaf, J. Chem. Phys. 133, 174116 (2010)
                 N. J. DeYonker, K. A. Peterson, A. K. Wilson, J. Phys. Chem. A 111, 11383 (2007)
        Ag, Au : Obtained from the Peterson Research Group Website (tyr0.chem.wsu.edu/~kipeters) Feb. 2017
                 K. A. Peterson, C. Puzzarini, Theor. Chem. Acc. 114, 283 (2005)

The basis set includes element-specific modifications.

Your calculation utilizes the basis: cc-pwCVTZ-PP 
       Ca, Sr, Ba, Ra : Obtained from the Peterson Research Group Website (tyr0.chem.wsu.edu/~kipeters) Feb. 2017
                        H. Li, H. Feng, W. Sun, Y. Zhang, Q. Fan, K. A. Peterson, Y. Xie, H. F. Schaefer III, Mol. Phys. 111, 2292 (2013)
  Cu-Zn, Ag-Cd, Au-Hg : Obtained from the ccRepo (grant-hill.group.shef.ac.uk/ccrepo) Feb. 2017
                        K. A. Peterson, C. Puzzarini, Theor. Chem. Acc. 114, 283 (2005)
  Ga-Kr, In-Xe, Tl-Rn : Obtained from the ccRepo (grant-hill.group.shef.ac.uk/ccrepo) Feb. 2017
                        K. A. Peterson, K. E. Yousaf, J. Chem. Phys. 133, 174116 (2010)
                 Y-Pd : Obtained from the ccRepo (grant-hill.group.shef.ac.uk/ccrepo) Feb. 2017
                        K. A. Peterson, D. Figgen, M. Dolg, H. Stoll, J. Chem. Phys. 126, 124101 (2007)
                Hf-Pt : Obtained from the ccRepo (grant-hill.group.shef.ac.uk/ccrepo) Feb. 2017
                        D. Figgen, K. A. Peterson, M. Dolg, H. Stoll, J. Chem. Phys. 130, 164108 (2009)
                    U : Obtained from the ccRepo (grant-hill.group.shef.ac.uk/ccrepo) Feb. 2020
                        K. A. Peterson, J. Chem. Phys. 142, 074105 (2015)

----- AuxJ basis set information -----
Your calculation utilizes the auxiliary basis: def2/J
   F. Weigend, Phys. Chem. Chem. Phys. 8, 1057 (2006).

================================================================================
                                        WARNINGS
                       Please study these warnings very carefully!
================================================================================

WARNING: The globally-selected AuxJ basis set is optimized for use with ECPs
         Make sure a suitable alternative is explicitly given all heavy elements (Z>36)

WARNING: Geometry Optimization
  ===> : Switching off AutoStart
         For restart on a previous wavefunction, please use MOREAD

INFO   : the flag for use of the SHARK integral package has been found!

================================================================================
                                       INPUT FILE
================================================================================
NAME = orca.inp
|  1> ! PBE0 D3BJ cc-pwCVTZ VeryTightOPT defgrid3 NOCOSX NOTRAH
|  2> %PAL NPROCS 64  END
|  3> %basis
|  4>    NewGTO I "cc-pwCVTZ-PP" end
|  5> end
|  6> %maxcore 3450
|  7> %scf
|  8>    Convergence VeryTight
|  9>    MaxIter 3000
| 10> end
| 11> %geom
| 12>    MaxIter 3000
| 13> end
| 14> * xyzfile 0 1 geom.xyz
| 15> 
| 16> 
| 17>                          ****END OF INPUT****
================================================================================

                       *****************************
                       * Geometry Optimization Run *
                       *****************************

Geometry optimization settings:
Update method            Update   .... BFGS
Choice of coordinates    CoordSys .... Z-matrix Internals
Initial Hessian          InHess   .... Almoef's Model

Convergence Tolerances:
Energy Change            TolE     ....  2.0000e-07 Eh
Max. Gradient            TolMAXG  ....  3.0000e-05 Eh/bohr
RMS Gradient             TolRMSG  ....  8.0000e-06 Eh/bohr
Max. Displacement        TolMAXD  ....  2.0000e-04 bohr
RMS Displacement         TolRMSD  ....  1.0000e-04 bohr
Strict Convergence                ....  False
------------------------------------------------------------------------------
                        ORCA OPTIMIZATION COORDINATE SETUP
------------------------------------------------------------------------------

The optimization will be done in new redundant internal coordinates
Making redundant internal coordinates   ...  (new redundants) done
Evaluating the initial hessian          ...  (Almloef) done
Evaluating the coordinates              ...  done
Calculating the B-matrix                .... done
Calculating the G-matrix                .... done
Diagonalizing the G-matrix              .... done
The first mode is                       ....    1
The number of degrees of freedom        ....    9

    -----------------------------------------------------------------
                    Redundant Internal Coordinates


    -----------------------------------------------------------------
         Definition                    Initial Value    Approx d2E/dq
    -----------------------------------------------------------------
      1. B(C   1,I   0)                  2.1286         0.139257   
      2. B(H   2,C   1)                  1.0846         0.367292   
      3. B(H   3,C   1)                  1.0846         0.367294   
      4. B(H   4,C   1)                  1.0846         0.367293   
      5. A(I   0,C   1,H   3)          107.6747         0.294124   
      6. A(H   2,C   1,H   3)          111.2087         0.292655   
      7. A(I   0,C   1,H   4)          107.6715         0.294124   
      8. A(H   2,C   1,H   4)          111.2080         0.292655   
      9. A(H   3,C   1,H   4)          111.2089         0.292655   
     10. A(I   0,C   1,H   2)          107.6711         0.294124   
    -----------------------------------------------------------------

Number of atoms                         .... 5
Number of degrees of freedom            .... 10

         *************************************************************
         *                GEOMETRY OPTIMIZATION CYCLE   1            *
         *************************************************************
---------------------------------
CARTESIAN COORDINATES (ANGSTROEM)
---------------------------------
  I     -2.352025   -7.032019    5.687457
  C     -1.784475   -5.302563    6.791031
  H     -0.974587   -5.586355    7.454309
  H     -1.463623   -4.548898    6.080093
  H     -2.651848   -4.969908    7.350849

----------------------------
CARTESIAN COORDINATES (A.U.)
----------------------------
  NO LB      ZA    FRAG     MASS         X           Y           Z
   0 I    53.0000    0   126.900   -4.444684  -13.288590   10.747736
   1 C     6.0000    0    12.011   -3.372168  -10.020393   12.833189
   2 H     1.0000    0     1.008   -1.841702  -10.556682   14.086603
   3 H     1.0000    0     1.008   -2.765846   -8.596172   11.489711
   4 H     1.0000    0     1.008   -5.011266   -9.391765   13.891092

--------------------------------
INTERNAL COORDINATES (ANGSTROEM)
--------------------------------
 I      0   0   0     0.000000000000     0.00000000     0.00000000
 C      1   0   0     2.128616230698     0.00000000     0.00000000
 H      2   1   0     1.084616609002   107.67114319     0.00000000
 H      2   1   3     1.084615406109   107.67465792   120.00075448
 H      2   1   3     1.084616136048   107.67146957   240.00192852

---------------------------
INTERNAL COORDINATES (A.U.)
---------------------------
 I      0   0   0     0.000000000000     0.00000000     0.00000000
 C      1   0   0     4.022501720240     0.00000000     0.00000000
 H      2   1   0     2.049628351317   107.67114319     0.00000000
 H      2   1   3     2.049626078177   107.67465792   120.00075448
 H      2   1   3     2.049627457563   107.67146957   240.00192852

---------------------
BASIS SET INFORMATION
---------------------
There are 3 groups of distinct atoms

 Group   1 Type I   : 23s22p11d3f1g contracted to 7s6p5d3f1g pattern {9911111/991111/71111/111/1}
 Group   2 Type C   : 20s7p3d1f contracted to 6s5p3d1f pattern {881111/31111/111/1}
 Group   3 Type H   : 5s2p1d contracted to 3s2p1d pattern {311/11/1}

Atom   0I    basis set group =>   1
Atom   1C    basis set group =>   2
Atom   2H    basis set group =>   3
Atom   3H    basis set group =>   3
Atom   4H    basis set group =>   3
---------------------------------
AUXILIARY/J BASIS SET INFORMATION
---------------------------------
There are 3 groups of distinct atoms

 Group   1 Type I   : 11s5p5d3f1g contracted to 8s4p3d2f1g pattern {41111111/2111/311/21/1}
 Group   2 Type C   : 12s5p4d2f1g contracted to 6s4p3d1f1g pattern {711111/2111/211/2/1}
 Group   3 Type H   : 5s2p1d contracted to 3s1p1d pattern {311/2/1}

Atom   0I    basis set group =>   1
Atom   1C    basis set group =>   2
Atom   2H    basis set group =>   3
Atom   3H    basis set group =>   3
Atom   4H    basis set group =>   3


           ************************************************************
           *        Program running with 64 parallel MPI-processes    *
           *              working on a common directory               *
           ************************************************************
------------------------------------------------------------------------------
                           ORCA GTO INTEGRAL CALCULATION
                           -- RI-GTO INTEGRALS CHOSEN --
------------------------------------------------------------------------------
------------------------------------------------------------------------------
                   ___                                                        
                  /   \      - P O W E R E D   B Y -                         
                 /     \                                                     
                 |  |  |   _    _      __       _____    __    __             
                 |  |  |  | |  | |    /  \     |  _  \  |  |  /  |          
                  \  \/   | |  | |   /    \    | | | |  |  | /  /          
                 / \  \   | |__| |  /  /\  \   | |_| |  |  |/  /          
                |  |  |   |  __  | /  /__\  \  |    /   |      \           
                |  |  |   | |  | | |   __   |  |    \   |  |\   \          
                \     /   | |  | | |  |  |  |  | |\  \  |  | \   \       
                 \___/    |_|  |_| |__|  |__|  |_| \__\ |__|  \__/        
                                                                              
                      - O R C A' S   B I G   F R I E N D -                    
                                      &                                       
                       - I N T E G R A L  F E E D E R -                       
                                                                              
 v1 FN, 2020, v2 2021                                                         
------------------------------------------------------------------------------


Reading SHARK input file orca.SHARKINP.tmp ... ok
----------------------
SHARK INTEGRAL PACKAGE
----------------------

Number of atoms                             ...      5
Number of basis functions                   ...    199
Number of shells                            ...     75
Maximum angular momentum                    ...      4
Integral batch strategy                     ... SHARK/LIBINT Hybrid
RI-J (if used) integral strategy            ... SPLIT-RIJ (Revised 2003 algorithm where possible)
Printlevel                                  ...      1
Contraction scheme used                     ... PARTIAL GENERAL contraction
Coulomb Range Separation                    ... NOT USED
Exchange Range Separation                   ... NOT USED
Finite Nucleus Model                        ... NOT USED
Auxiliary Coulomb fitting basis             ... AVAILABLE
   # of basis functions in Aux-J            ...    140
   # of shells in Aux-J                     ...     48
   Maximum angular momentum in Aux-J        ...      4
Auxiliary J/K fitting basis                 ... NOT available
Auxiliary Correlation fitting basis         ... NOT available
Auxiliary 'external' fitting basis          ... NOT available
Integral threshold                          ...     1.000000e-12
Primitive cut-off                           ...     1.000000e-14
Primitive pair pre-selection threshold      ...     1.000000e-14

Calculating pre-screening integrals         ... done (  0.0 sec) Dimension = 75
Calculating pre-screening integrals (ORCA)  ... done (  0.1 sec) Dimension = 55
Organizing shell pair data                  ... done (  0.0 sec)
Shell pair information
Total number of shell pairs                 ...      2850
Shell pairs after pre-screening             ...      2682
Total number of primitive shell pairs       ...      4038
Primitive shell pairs kept                  ...      3618
          la=0 lb=0:    563 shell pairs
          la=1 lb=0:    774 shell pairs
          la=1 lb=1:    288 shell pairs
          la=2 lb=0:    375 shell pairs
          la=2 lb=1:    260 shell pairs
          la=2 lb=2:     66 shell pairs
          la=3 lb=0:    133 shell pairs
          la=3 lb=1:     94 shell pairs
          la=3 lb=2:     44 shell pairs
          la=3 lb=3:     10 shell pairs
          la=4 lb=0:     35 shell pairs
          la=4 lb=1:     24 shell pairs
          la=4 lb=2:     11 shell pairs
          la=4 lb=3:      4 shell pairs
          la=4 lb=4:      1 shell pairs

Calculating one electron integrals          ... done (  0.0 sec)
Calculating RI/J V-Matrix + Cholesky decomp.... done (  0.0 sec)
Calculating Nuclear repulsion               ... done (  0.0 sec) ENN=    120.280834620885 Eh

SHARK setup successfully completed in   0.3 seconds

Maximum memory used throughout the entire GTOINT-calculation: 31.1 MB


           ************************************************************
           *        Program running with 64 parallel MPI-processes    *
           *              working on a common directory               *
           ************************************************************
-------------------------------------------------------------------------------
                                 ORCA SCF
-------------------------------------------------------------------------------

------------
SCF SETTINGS
------------
Hamiltonian:
 Density Functional     Method          .... DFT(GTOs)
 Exchange Functional    Exchange        .... PBE
   PBE kappa parameter   XKappa         ....  0.804000
   PBE mue parameter    XMuePBE         ....  0.219520
 Correlation Functional Correlation     .... PBE
   PBE beta parameter  CBetaPBE         ....  0.066725
 LDA part of GGA corr.  LDAOpt          .... PW91-LDA
 Gradients option       PostSCFGGA      .... off
 Hybrid DFT is turned on
   Fraction HF Exchange ScalHFX         ....  0.250000
   Scaling of DF-GGA-X  ScalDFX         ....  0.750000
   Scaling of DF-GGA-C  ScalDFC         ....  1.000000
   Scaling of DF-LDA-C  ScalLDAC        ....  1.000000
   Perturbative correction              ....  0.000000
   Density functional embedding theory  .... OFF
   NL short-range parameter             ....  6.900000
 RI-approximation to the Coulomb term is turned on
   Number of AuxJ basis functions       .... 140
   RIJ-ON(X) (HFX calculated with O(N)) .... on


General Settings:
 Integral files         IntName         .... orca
 Hartree-Fock type      HFTyp           .... RHF
 Total Charge           Charge          ....    0
 Multiplicity           Mult            ....    1
 Number of Electrons    NEL             ....   62
 Basis Dimension        Dim             ....  165
 Nuclear Repulsion      ENuc            ....    120.2808346209 Eh

Convergence Acceleration:
 DIIS                   CNVDIIS         .... on
   Start iteration      DIISMaxIt       ....    12
   Startup error        DIISStart       ....  0.200000
   # of expansion vecs  DIISMaxEq       ....     5
   Bias factor          DIISBfac        ....   1.050
   Max. coefficient     DIISMaxC        ....  10.000
 Trust-Rad. Augm. Hess. CNVTRAH         .... off
 SOSCF                  CNVSOSCF        .... on
   Start iteration      SOSCFMaxIt      ....   150
   Startup grad/error   SOSCFStart      ....  0.003300
 Level Shifting         CNVShift        .... on
   Level shift para.    LevelShift      ....    0.2500
   Turn off err/grad.   ShiftErr        ....    0.0010
 Zerner damping         CNVZerner       .... off
 Static damping         CNVDamp         .... on
   Fraction old density DampFac         ....    0.7000
   Max. Damping (<1)    DampMax         ....    0.9800
   Min. Damping (>=0)   DampMin         ....    0.0000
   Turn off err/grad.   DampErr         ....    0.1000
 Fernandez-Rico         CNVRico         .... off

SCF Procedure:
 Maximum # iterations   MaxIter         ....  3000
 SCF integral mode      SCFMode         .... Direct
   Integral package                     .... SHARK and LIBINT hybrid scheme
 Reset frequency        DirectResetFreq ....    20
 Integral Threshold     Thresh          ....  1.000e-12 Eh
 Primitive CutOff       TCut            ....  1.000e-14 Eh

Convergence Tolerance:
 Convergence Check Mode ConvCheckMode   .... Total+1el-Energy
 Convergence forced     ConvForced      .... 0
 Energy Change          TolE            ....  1.000e-09 Eh
 1-El. energy change                    ....  1.000e-06 Eh
 Orbital Gradient       TolG            ....  2.000e-06
 Orbital Rotation angle TolX            ....  2.000e-06
 DIIS Error             TolErr          ....  1.000e-08


Diagonalization of the overlap matrix:
Smallest eigenvalue                        ... 6.042e-05
Time for diagonalization                   ...    0.003 sec
Threshold for overlap eigenvalues          ... 1.000e-08
Number of eigenvalues below threshold      ... 0
Time for construction of square roots      ...    0.003 sec
Total time needed                          ...    0.006 sec

Time for model grid setup =    0.035 sec

------------------------------
INITIAL GUESS: MODEL POTENTIAL
------------------------------
Loading Hartree-Fock densities                     ... done
Calculating cut-offs                               ... done
Initializing the effective Hamiltonian             ... done
Setting up the integral package (SHARK)            ... done
Starting the Coulomb interaction                   ... done (   0.0 sec)
Reading the grid                                   ... done
Mapping shells                                     ... done
Starting the XC term evaluation                    ... done (   0.0 sec)
  promolecular density results
     # of electrons  =     61.998323315
     EX              =   -179.112781404
     EC              =     -3.140355500
     EX+EC           =   -182.253136904
Transforming the Hamiltonian                       ... done (   0.0 sec)
Diagonalizing the Hamiltonian                      ... done (   0.0 sec)
Back transforming the eigenvectors                 ... done (   0.0 sec)
Now organizing SCF variables                       ... done
                      ------------------
                      INITIAL GUESS DONE (   0.1 sec)
                      ------------------
-------------------
DFT GRID GENERATION
-------------------

General Integration Accuracy     IntAcc      ... 4.959
Radial Grid Type                 RadialGrid  ... OptM3 with GC (2021)
Angular Grid (max. ang.)         AngularGrid ... 6 (Lebedev-590)
Angular grid pruning method      GridPruning ... 4 (adaptive)
Weight generation scheme         WeightScheme... Becke
Basis function cutoff            BFCut       ... 1.0000e-12
Integration weight cutoff        WCut        ... 1.0000e-14
Angular grids for H and He will be reduced by one unit
Partially contracted basis set               ... off
Rotationally invariant grid construction     ... off

Total number of grid points                  ...    66280
Total number of batches                      ...     1038
Average number of points per batch           ...       63
Average number of grid points per atom       ...    13256
Time for grid setup =    0.776 sec

--------------
SCF ITERATIONS
--------------
ITER       Energy         Delta-E        Max-DP      RMS-DP      [F,P]     Damp
               ***  Starting incremental Fock matrix formation  ***
  0  -2443.6254623572   0.0000000000001303.93400333 10.93386217  3.6576298 0.7000
  1  -2527.6628698297 -84.037407472555855.87965954  7.12749438  1.3133656 0.7000
  2  -2557.2136046902 -29.550734860513459.90178066  3.76834354  0.6524399 0.7000
  3  -2567.4317797567 -10.218175066450171.33587281  1.37204786  0.8368566 0.7000
  4  -2574.7933855876  -7.361605830916106.00643206  0.85169589  0.7158096 0.7000
  5  -2579.8483096488  -5.05492406115963.10275291  0.50604911  0.6197748 0.7000
  6  -2583.4184892767  -3.57017962796034.06437353  0.27440566  0.5157868 0.7000
  7  -2585.9264053945  -2.50791611780317.48769776  0.14473224  0.4088872 0.7000
  8  -2587.6912750324  -1.764869637830 9.25883953  0.08114011  0.3111812 0.7000
  9  -2588.9333588101  -1.242083777753 5.46645032  0.05068378  0.2302880 0.7000
                               ***Turning on DIIS***
 10  -2589.8066312945  -0.873272484392 3.64177991  0.03450730  0.1676754 0.7000
 11  -2590.4200709391  -0.613439644561 2.74544988  0.02547685  0.1210823 0.7000
 12  -2590.8508371253  -0.430766186198 6.63049529  0.06121142  0.0851127 0.0000
 13  -2591.8614635019  -1.010626376663 0.26540168  0.00492171  0.0091911 0.0000
 14  -2591.8628759671  -0.001412465183 0.33774046  0.00530462  0.0080704 0.0000
 15  -2591.8642768108  -0.001400843707 0.76546216  0.00811790  0.0068697 0.0000
 16  -2591.8653840738  -0.001107262986 0.44436199  0.00550577  0.0056353 0.0000
 17  -2591.8662153403  -0.000831266472 0.75161133  0.00740047  0.0052077 0.0000
 18  -2591.8669122346  -0.000696894333 0.16572014  0.00269469  0.0049859 0.0000
 19  -2591.8673670065  -0.000454771931 0.19545355  0.00305067  0.0043398 0.0000
               *** Restarting incremental Fock matrix formation ***
                                   *** Resetting DIIS ***
 20  -2591.8678133491  -0.000446342528 0.21366234  0.00249906  0.0043080 0.0000
 21  -2591.8681108047  -0.000297455635 0.11948946  0.00170024  0.0037434 0.0000
 22  -2591.8683646104  -0.000253805724 0.04236330  0.00118461  0.0036208 0.0000
 23  -2591.8685853602  -0.000220749785 0.03268519  0.00086861  0.0035615 0.0000
 24  -2591.8687491365  -0.000163776263 0.02038298  0.00055575  0.0035288 0.0000
 25  -2591.8688461428  -0.000097006365 0.02745526  0.00045322  0.0035385 0.0000
 26  -2591.8689183375  -0.000072194627 0.02124249  0.00049367  0.0035572 0.0000
 27  -2591.8690026101  -0.000084272642 0.06472664  0.00093184  0.0035722 0.0000
 28  -2591.8691388880  -0.000136277866 0.06054259  0.00161227  0.0036073 0.0000
 29  -2591.8694099443  -0.000271056289 0.07425872  0.00188922  0.0037368 0.0000
 30  -2591.8697624287  -0.000352484467 0.06613860  0.00158854  0.0039344 0.0000
 31  -2591.8700800815  -0.000317652791 0.04254173  0.00103064  0.0039318 0.0000
 32  -2591.8702867000  -0.000206618458 0.11758774  0.00164635  0.0038365 0.0000
 33  -2591.8700804924   0.000206207597 0.04621385  0.00073119  0.0039372 0.0000
 34  -2591.8701516057  -0.000071113336 0.07148832  0.00166443  0.0038684 0.0000
 35  -2591.8704436745  -0.000292068794 0.06354655  0.00154480  0.0038564 0.0000
 36  -2591.8707506436  -0.000306969102 0.07673968  0.00185691  0.0039606 0.0000
 37  -2591.8711211925  -0.000370548852 0.07625594  0.00179757  0.0040681 0.0000
 38  -2591.8714927346  -0.000371542128 0.05671662  0.00131931  0.0041133 0.0000
 39  -2591.8717733687  -0.000280634068 0.08762727  0.00126949  0.0040297 0.0000
               *** Restarting incremental Fock matrix formation ***
                                   *** Resetting DIIS ***
 40  -2591.8716214409   0.000151927735 0.14307329  0.00270814  0.0042619 0.0000
 41  -2591.8720287178  -0.000407276840 0.08301588  0.00191692  0.0041066 0.0000
 42  -2591.8724319084  -0.000403190664 0.07746255  0.00179345  0.0041671 0.0000
 43  -2591.8728179720  -0.000386063535 0.06535944  0.00152803  0.0041330 0.0000
 44  -2591.8731475884  -0.000329616423 0.04787369  0.00065045  0.0041014 0.0000
 45  -2591.8732379309  -0.000090342483 0.01633074  0.00038924  0.0043341 0.0000
 46  -2591.8733064490  -0.000068518145 0.03443787  0.00084740  0.0044267 0.0000
 47  -2591.8734793429  -0.000172893856 0.04039876  0.00097152  0.0043916 0.0000
 48  -2591.8736854386  -0.000206095761 0.05792945  0.00147936  0.0043688 0.0000
 49  -2591.8739875234  -0.000302084723 0.11132839  0.00282787  0.0042993 0.0000
 50  -2591.8745585131  -0.000570989730 0.08094899  0.00195285  0.0044167 0.0000
 51  -2591.8749890642  -0.000430551097 0.08231865  0.00204193  0.0043751 0.0000
 52  -2591.8754281613  -0.000439097149 0.07622409  0.00189842  0.0044102 0.0000
 53  -2591.8758407771  -0.000412615757 0.04839115  0.00122625  0.0044324 0.0000
 54  -2591.8761094436  -0.000268666554 0.03888823  0.00051574  0.0043284 0.0000
 55  -2591.8761505520  -0.000041108342 0.03213730  0.00087757  0.0045063 0.0000
 56  -2591.8763233709  -0.000172818886 0.03579991  0.00091896  0.0044560 0.0000
 57  -2591.8765189188  -0.000195547957 0.04744060  0.00122607  0.0044280 0.0000
 58  -2591.8767760021  -0.000257083249 0.10226645  0.00269395  0.0043593 0.0000
 59  -2591.8773116227  -0.000535620583 0.08509252  0.00210910  0.0046466 0.0000
               *** Restarting incremental Fock matrix formation ***
                                   *** Resetting DIIS ***
 60  -2591.8777625241  -0.000450901465 0.07975260  0.00197430  0.0046014 0.0000
 61  -2591.8781821357  -0.000419611586 0.07489958  0.00187650  0.0046112 0.0000
 62  -2591.8785734221  -0.000391286340 0.08317870  0.00206998  0.0045776 0.0000
 63  -2591.8789998093  -0.000426387229 0.11983248  0.00300158  0.0046278 0.0000
 64  -2591.8795932619  -0.000593452660 0.10414385  0.00255110  0.0047850 0.0000
 65  -2591.8801147817  -0.000521519751 0.17716731  0.00448096  0.0047209 0.0000
 66  -2591.8809392360  -0.000824454290 0.12062093  0.00160423  0.0050109 0.0000
 67  -2591.8810992581  -0.000160022116 0.17284497  0.00463548  0.0043288 0.0000
 68  -2591.8818699824  -0.000770724306 0.15063813  0.00377924  0.0048693 0.0000
 69  -2591.8825589826  -0.000689000241 0.14325609  0.00368107  0.0047582 0.0000
 70  -2591.8832026438  -0.000643661132 0.14255199  0.00372468  0.0046319 0.0000
 71  -2591.8838242287  -0.000621584917 0.11588450  0.00308876  0.0044649 0.0000
 72  -2591.8843363841  -0.000512155415 0.29109027  0.00815339  0.0042202 0.0000
 73  -2591.8852922855  -0.000955901347 0.15551370  0.00270105  0.0055394 0.0000
 74  -2591.8854588222  -0.000166536779 0.35208343  0.00546007  0.0031990 0.0000
 75  -2591.8859447657  -0.000485943412 0.22663287  0.00588463  0.0036252 0.0000
 76  -2591.8864767261  -0.000531960403 0.06846029  0.00198554  0.0045816 0.0000
 77  -2591.8867419434  -0.000265217346 0.11724630  0.00270281  0.0026595 0.0000
 78  -2591.8869817308  -0.000239787417 0.09332609  0.00215758  0.0025154 0.0000
 79  -2591.8871694727  -0.000187741850 0.14031376  0.00306351  0.0022300 0.0000
               *** Restarting incremental Fock matrix formation ***
                                   *** Resetting DIIS ***
                      *** Initiating the SOSCF procedure ***
                           *** Shutting down DIIS ***
                      *** Re-Reading the Fockian *** 
                      *** Removing any level shift *** 
ITER      Energy       Delta-E        Grad      Rot      Max-DP    RMS-DP
 80  -2591.88736012  -0.0001906442  0.002286  0.002286  0.194356  0.001944
               *** Restarting incremental Fock matrix formation ***
 81  -2591.88742807  -0.0000679482  0.001709  0.015777  0.158793  0.002229
 82  -2591.88753258  -0.0001045156  0.001306  0.105836  0.456586  0.011818
 83  -2591.88785691  -0.0003243303  0.001792  0.026591  0.554033  0.007276
 84  -2591.88793106  -0.0000741449  0.001491  0.003577  0.221718  0.002661
 85  -2591.88797148  -0.0000404271  0.000424  0.004072  0.177054  0.001672
 86  -2591.88797690  -0.0000054197  0.000479  0.004260  0.054656  0.000848
 87  -2591.88798102  -0.0000041174  0.000303  0.001164  0.059996  0.000870
 88  -2591.88798257  -0.0000015544  0.000153  0.001227  0.054727  0.000878
 89  -2591.88798281  -0.0000002344  0.000143  0.000335  0.037326  0.000328
 90  -2591.88798307  -0.0000002610  0.000021  0.000112  0.012475  0.000136
 91  -2591.88798309  -0.0000000180  0.000011  0.000057  0.002443  0.000027
 92  -2591.88798309  -0.0000000037  0.000005  0.000114  0.001296  0.000024
 93  -2591.88798309  -0.0000000018  0.000005  0.000159  0.001103  0.000024
 94  -2591.88798310  -0.0000000025  0.000008  0.000153  0.001688  0.000026
 95  -2591.88798310  -0.0000000022  0.000005  0.000136  0.002701  0.000031
 96  -2591.88798310  -0.0000000009  0.000002  0.000011  0.000806  0.000009
 97  -2591.88798310  -0.0000000011  0.000001  0.000004  0.000726  0.000009
                  ***Gradient check signals convergence***
              ***Rediagonalizing the Fockian in SOSCF/NRSCF***

               *****************************************************
               *                     SUCCESS                       *
               *           SCF CONVERGED AFTER  98 CYCLES          *
               *****************************************************


----------------
TOTAL SCF ENERGY
----------------

Total Energy       :        -2591.88798310 Eh          -70528.85764 eV

Components:
Nuclear Repulsion  :          120.28083462 Eh            3273.00791 eV
Electronic Energy  :        -2712.16881772 Eh          -73801.86554 eV
One Electron Energy:        -4335.83030713 Eh         -117983.94084 eV
Two Electron Energy:         1623.66148941 Eh           44182.07530 eV

Virial components:
Potential Energy   :        -3415.96512497 Eh          -92953.13670 eV
Kinetic Energy     :          824.07714187 Eh           22424.27906 eV
Virial Ratio       :            4.14520068


DFT components:
N(Alpha)           :       30.999998646354 electrons
N(Beta)            :       30.999998646354 electrons
N(Total)           :       61.999997292709 electrons
E(X)               :      -64.332209034954 Eh       
E(C)               :       -3.603285165550 Eh       
E(XC)              :      -67.935494200504 Eh       
DFET-embed. en.    :        0.000000000000 Eh       

---------------
SCF CONVERGENCE
---------------

  Last Energy change         ...   -8.4128e-11  Tolerance :   1.0000e-09
  Last MAX-Density change    ...    5.3888e-04  Tolerance :   1.0000e-08
  Last RMS-Density change    ...    4.4641e-06  Tolerance :   1.0000e-09
  Last Orbital Gradient      ...    2.6715e-07  Tolerance :   2.0000e-06
  Last Orbital Rotation      ...    7.5535e-07  Tolerance :   2.0000e-06

             **** THE GBW FILE WAS UPDATED (orca.gbw) ****
             **** DENSITY orca.scfp WAS UPDATED ****
             **** ENERGY FILE WAS UPDATED (orca.en.tmp) ****
             **** THE GBW FILE WAS UPDATED (orca.gbw) ****
             **** DENSITY orca.scfp WAS UPDATED ****
----------------
ORBITAL ENERGIES
----------------

  NO   OCC          E(Eh)            E(eV) 
   0   2.0000    -164.090993     -4465.1429 
   1   2.0000     -64.582672     -1757.3839 
   2   2.0000     -64.469217     -1754.2966 
   3   2.0000     -64.469203     -1754.2962 
   4   2.0000     -28.561744      -777.2046 
   5   2.0000     -15.054038      -409.6412 
   6   2.0000     -15.023248      -408.8034 
   7   2.0000     -15.023216      -408.8025 
   8   2.0000     -15.005884      -408.3309 
   9   2.0000     -15.001925      -408.2231 
  10   2.0000     -10.421409      -283.5809 
  11   2.0000      -9.125128      -248.3074 
  12   2.0000      -9.088732      -247.3170 
  13   2.0000      -9.088584      -247.3129 
  14   2.0000      -5.747466      -156.3965 
  15   2.0000      -1.515389       -41.2358 
  16   2.0000      -1.512031       -41.1445 
  17   2.0000      -1.511907       -41.1411 
  18   2.0000      -1.505653       -40.9709 
  19   2.0000      -1.503897       -40.9231 
  20   2.0000      -1.494626       -40.6708 
  21   2.0000      -1.494625       -40.6708 
  22   2.0000      -0.888405       -24.1747 
  23   2.0000      -0.704361       -19.1666 
  24   2.0000      -0.662193       -18.0192 
  25   2.0000      -0.662074       -18.0159 
  26   2.0000      -0.626623       -17.0513 
  27   2.0000      -0.550375       -14.9765 
  28   2.0000      -0.550369       -14.9763 
  29   2.0000      -0.456311       -12.4168 
  30   2.0000      -0.408884       -11.1263 
  31   0.0000      -0.301300        -8.1988 
  32   0.0000      -0.300991        -8.1904 
  33   0.0000      -0.279328        -7.6009 
  34   0.0000      -0.121780        -3.3138 
  35   0.0000      -0.000753        -0.0205 
  36   0.0000       0.052046         1.4162 
  37   0.0000       0.052169         1.4196 
  38   0.0000       0.149625         4.0715 
  39   0.0000       0.163779         4.4567 
  40   0.0000       0.163878         4.4594 
  41   0.0000       0.214901         5.8478 
  42   0.0000       0.220746         6.0068 
  43   0.0000       0.220801         6.0083 
  44   0.0000       0.255236         6.9453 
  45   0.0000       0.365994         9.9592 
  46   0.0000       0.366030         9.9602 
  47   0.0000       0.390576        10.6281 
  48   0.0000       0.429012        11.6740 
  49   0.0000       0.429412        11.6849 
  50   0.0000       0.519518        14.1368 
  51   0.0000       0.520632        14.1671 
  52   0.0000       0.543689        14.7945 
  53   0.0000       0.668955        18.2032 
  54   0.0000       0.669028        18.2052 
  55   0.0000       0.727036        19.7837 
  56   0.0000       0.781268        21.2594 
  57   0.0000       0.837331        22.7849 
  58   0.0000       0.839237        22.8368 
  59   0.0000       0.880379        23.9563 
  60   0.0000       0.913778        24.8652 
  61   0.0000       0.913856        24.8673 
  62   0.0000       1.014185        27.5974 
  63   0.0000       1.046161        28.4675 
  64   0.0000       1.049110        28.5477 
  65   0.0000       1.068133        29.0654 
  66   0.0000       1.079828        29.3836 
  67   0.0000       1.204537        32.7771 
  68   0.0000       1.205316        32.7983 
  69   0.0000       1.224340        33.3160 
  70   0.0000       1.258686        34.2506 
  71   0.0000       1.260474        34.2992 
  72   0.0000       1.273809        34.6621 
  73   0.0000       1.274351        34.6769 
  74   0.0000       1.277722        34.7686 
  75   0.0000       1.348971        36.7074 
  76   0.0000       1.430473        38.9251 
  77   0.0000       1.430582        38.9281 
  78   0.0000       1.484437        40.3936 
  79   0.0000       2.056100        55.9493 
  80   0.0000       2.056194        55.9519 
  81   0.0000       2.149578        58.4930 
  82   0.0000       2.283193        62.1288 
  83   0.0000       2.355504        64.0965 
  84   0.0000       2.356363        64.1199 
  85   0.0000       2.418459        65.8096 
  86   0.0000       2.420186        65.8566 
  87   0.0000       2.456352        66.8407 
  88   0.0000       2.488453        67.7142 
  89   0.0000       2.488995        67.7290 
  90   0.0000       2.692650        73.2707 
  91   0.0000       2.721330        74.0511 
  92   0.0000       2.721502        74.0558 
  93   0.0000       2.848733        77.5180 
  94   0.0000       2.848919        77.5230 
  95   0.0000       2.888129        78.5900 
  96   0.0000       2.960051        80.5471 
  97   0.0000       2.960197        80.5510 
  98   0.0000       2.995930        81.5234 
  99   0.0000       3.174179        86.3738 
 100   0.0000       3.279004        89.2262 
 101   0.0000       3.279188        89.2312 
 102   0.0000       3.320059        90.3434 
 103   0.0000       3.355361        91.3040 
 104   0.0000       3.355411        91.3054 
 105   0.0000       3.505339        95.3851 
 106   0.0000       3.693915       100.5165 
 107   0.0000       3.713264       101.0430 
 108   0.0000       3.713290       101.0437 
 109   0.0000       3.839603       104.4809 
 110   0.0000       3.839631       104.4817 
 111   0.0000       3.934048       107.0509 
 112   0.0000       3.934106       107.0525 
 113   0.0000       3.944177       107.3265 
 114   0.0000       4.078838       110.9908 
 115   0.0000       4.199357       114.2703 
 116   0.0000       4.471391       121.6727 
 117   0.0000       4.473098       121.7192 
 118   0.0000       4.483230       121.9949 
 119   0.0000       4.486145       122.0742 
 120   0.0000       4.502744       122.5259 
 121   0.0000       4.506406       122.6255 
 122   0.0000       4.534607       123.3929 
 123   0.0000       4.549898       123.8090 
 124   0.0000       4.550639       123.8292 
 125   0.0000       4.552004       123.8663 
 126   0.0000       4.554751       123.9411 
 127   0.0000       4.560897       124.1083 
 128   0.0000       4.563605       124.1820 
 129   0.0000       4.606677       125.3541 
 130   0.0000       4.609077       125.4194 
 131   0.0000       4.632414       126.0544 
 132   0.0000       4.744557       129.1060 
 133   0.0000       4.744988       129.1177 
 134   0.0000       4.881061       132.8204 
 135   0.0000       4.901098       133.3657 
 136   0.0000       4.901142       133.3669 
 137   0.0000       4.987455       135.7156 
 138   0.0000       4.987466       135.7159 
 139   0.0000       5.034445       136.9942 
 140   0.0000       5.113809       139.1538 
 141   0.0000       5.113845       139.1548 
 142   0.0000       5.154584       140.2634 
 143   0.0000       5.292174       144.0074 
 144   0.0000       5.625180       153.0689 
 145   0.0000       5.625286       153.0718 
 146   0.0000       5.653256       153.8329 
 147   0.0000       6.988908       190.1779 
 148   0.0000       7.001907       190.5316 
 149   0.0000       7.075227       192.5267 
 150   0.0000       7.075696       192.5395 
 151   0.0000       7.351665       200.0490 
 152   0.0000      10.426856       283.7292 
 153   0.0000      10.774066       293.1772 
 154   0.0000      10.774093       293.1780 
 155   0.0000      12.594667       342.7183 
 156   0.0000      14.341973       390.2649 
 157   0.0000      14.342031       390.2665 
 158   0.0000      14.580786       396.7634 
 159   0.0000      14.934803       406.3966 
 160   0.0000      14.934894       406.3991 
 161   0.0000      49.504664      1347.0904 
 162   0.0000      49.764249      1354.1541 
 163   0.0000      49.764262      1354.1544 
 164   0.0000      61.353816      1669.5222 

                    ********************************
                    * MULLIKEN POPULATION ANALYSIS *
                    ********************************

-----------------------
MULLIKEN ATOMIC CHARGES
-----------------------
   0 I :   -0.652985
   1 C :    0.086295
   2 H :    0.189396
   3 H :    0.189277
   4 H :    0.188015
Sum of atomic charges:   -0.0000000

--------------------------------
MULLIKEN REDUCED ORBITAL CHARGES
--------------------------------
  0 I s       :     7.899704  s :     7.899704
      pz      :     5.991199  p :    17.977288
      px      :     5.984998
      py      :     6.001091
      dz2     :     2.408338  d :    13.760573
      dxz     :     2.632386
      dyz     :     3.321027
      dx2y2   :     3.122983
      dxy     :     2.275838
      f0      :     2.001759  f :    14.015262
      f+1     :     2.000410
      f-1     :     2.002392
      f+2     :     2.003804
      f-2     :     2.002774
      f+3     :     2.002216
      f-3     :     2.001907
      g0      :     0.000015  g :     0.000159
      g+1     :     0.000006
      g-1     :     0.000020
      g+2     :     0.000018
      g-2     :     0.000015
      g+3     :     0.000026
      g-3     :     0.000028
      g+4     :     0.000014
      g-4     :     0.000017
  1 C s       :     3.121105  s :     3.121105
      pz      :     0.960510  p :     2.761520
      px      :     1.083140
      py      :     0.717870
      dz2     :    -0.000370  d :     0.030864
      dxz     :     0.013719
      dyz     :     0.008325
      dx2y2   :     0.005359
      dxy     :     0.003830
      f0      :    -0.000326  f :     0.000215
      f+1     :     0.000062
      f-1     :     0.000078
      f+2     :     0.000287
      f-2     :     0.000377
      f+3     :    -0.000202
      f-3     :    -0.000062
  2 H s       :     0.768825  s :     0.768825
      pz      :     0.016391  p :     0.039398
      px      :     0.016964
      py      :     0.006042
      dz2     :     0.000486  d :     0.002381
      dxz     :     0.000942
      dyz     :     0.000256
      dx2y2   :     0.000408
      dxy     :     0.000288
  3 H s       :     0.768927  s :     0.768927
      pz      :     0.008176  p :     0.039416
      px      :     0.011750
      py      :     0.019491
      dz2     :     0.000303  d :     0.002380
      dxz     :     0.000453
      dyz     :     0.000577
      dx2y2   :     0.000530
      dxy     :     0.000516
  4 H s       :     0.770030  s :     0.770030
      pz      :     0.015155  p :     0.039583
      px      :     0.011864
      py      :     0.012564
      dz2     :     0.000384  d :     0.002371
      dxz     :     0.000768
      dyz     :     0.000370
      dx2y2   :     0.000356
      dxy     :     0.000494


                     *******************************
                     * LOEWDIN POPULATION ANALYSIS *
                     *******************************

----------------------
LOEWDIN ATOMIC CHARGES
----------------------
   0 I :   -0.384900
   1 C :    0.306999
   2 H :    0.026233
   3 H :    0.026165
   4 H :    0.025502

-------------------------------
LOEWDIN REDUCED ORBITAL CHARGES
-------------------------------
  0 I s       :     7.775411  s :     7.775411
      pz      :     5.920264  p :    17.724406
      px      :     5.954902
      py      :     5.849240
      dz2     :     2.417784  d :    13.864377
      dxz     :     2.639939
      dyz     :     3.363449
      dx2y2   :     3.149129
      dxy     :     2.294077
      f0      :     2.002005  f :    14.020510
      f+1     :     2.000558
      f-1     :     2.003945
      f+2     :     2.004606
      f-2     :     2.003699
      f+3     :     2.002930
      f-3     :     2.002768
      g0      :     0.000018  g :     0.000195
      g+1     :     0.000008
      g-1     :     0.000025
      g+2     :     0.000021
      g-2     :     0.000017
      g+3     :     0.000033
      g-3     :     0.000035
      g+4     :     0.000017
      g-4     :     0.000021
  1 C s       :     2.744579  s :     2.744579
      pz      :     0.924203  p :     2.683627
      px      :     1.013360
      py      :     0.746064
      dz2     :     0.014279  d :     0.242486
      dxz     :     0.054986
      dyz     :     0.083424
      dx2y2   :     0.051471
      dxy     :     0.038326
      f0      :     0.004533  f :     0.022309
      f+1     :     0.001749
      f-1     :     0.002252
      f+2     :     0.004099
      f-2     :     0.003156
      f+3     :     0.003649
      f-3     :     0.002871
  2 H s       :     0.797003  s :     0.797003
      pz      :     0.054863  p :     0.149348
      px      :     0.066717
      py      :     0.027768
      dz2     :     0.006837  d :     0.027416
      dxz     :     0.007578
      dyz     :     0.003428
      dx2y2   :     0.005976
      dxy     :     0.003597
  3 H s       :     0.797064  s :     0.797064
      pz      :     0.052059  p :     0.149355
      px      :     0.045904
      py      :     0.051392
      dz2     :     0.004101  d :     0.027416
      dxz     :     0.005573
      dyz     :     0.007467
      dx2y2   :     0.005088
      dxy     :     0.005187
  4 H s       :     0.797653  s :     0.797653
      pz      :     0.049899  p :     0.149429
      px      :     0.067020
      py      :     0.032510
      dz2     :     0.005649  d :     0.027416
      dxz     :     0.008158
      dyz     :     0.002565
      dx2y2   :     0.004524
      dxy     :     0.006520


                      *****************************
                      * MAYER POPULATION ANALYSIS *
                      *****************************

  NA   - Mulliken gross atomic population
  ZA   - Total nuclear charge
  QA   - Mulliken gross atomic charge
  VA   - Mayer's total valence
  BVA  - Mayer's bonded valence
  FA   - Mayer's free valence

  ATOM       NA         ZA         QA         VA         BVA        FA
  0 I     53.6530    53.0000    -0.6530     0.8205     0.8205    -0.0000
  1 C      5.9137     6.0000     0.0863     3.4091     3.4091     0.0000
  2 H      0.8106     1.0000     0.1894     1.0175     1.0175    -0.0000
  3 H      0.8107     1.0000     0.1893     1.0177     1.0177    -0.0000
  4 H      0.8120     1.0000     0.1880     1.0195     1.0195     0.0000

  Mayer bond orders larger than 0.100000
B(  0-I ,  1-C ) :   0.5933 B(  1-C ,  2-H ) :   0.9390 B(  1-C ,  3-H ) :   0.9389 
B(  1-C ,  4-H ) :   0.9379 

-------
TIMINGS
-------

Total SCF time: 0 days 0 hours 0 min 44 sec 

Total time                  ....      44.710 sec
Sum of individual times     ....      44.492 sec  ( 99.5%)

Fock matrix formation       ....      42.093 sec  ( 94.1%)
  Split-RI-J                ....       1.177 sec  (  2.8% of F)
  XC integration            ....       1.912 sec  (  4.5% of F)
    Basis function eval.    ....       0.341 sec  ( 17.8% of XC)
    Density eval.           ....       0.279 sec  ( 14.6% of XC)
    XC-Functional eval.     ....       0.069 sec  (  3.6% of XC)
    XC-Potential eval.      ....       0.350 sec  ( 18.3% of XC)
Diagonalization             ....       0.618 sec  (  1.4%)
Density matrix formation    ....       0.074 sec  (  0.2%)
Population analysis         ....       0.008 sec  (  0.0%)
Initial guess               ....       0.019 sec  (  0.0%)
Orbital Transformation      ....       0.000 sec  (  0.0%)
Orbital Orthonormalization  ....       0.000 sec  (  0.0%)
DIIS solution               ....       0.737 sec  (  1.6%)
SOSCF solution              ....       0.130 sec  (  0.3%)
Grid generation             ....       0.811 sec  (  1.8%)

Maximum memory used throughout the entire SCF-calculation: 30.0 MB


-------------------------------------------------------------------------------
                          DFT DISPERSION CORRECTION                            
                                                                               
                              DFTD3 V3.1  Rev 1                                
                          USING Becke-Johnson damping                          
-------------------------------------------------------------------------------
The PBE0 functional is recognized
Active option DFTDOPT                   ...         4   

molecular C6(AA) [au] = 807.031153 


            DFT-D V3
 parameters
 s6 scaling factor         :     1.0000 
 a1 scaling factor         :     0.4145 
 s8 scaling factor         :     1.2177 
 a2 scaling factor         :     4.8593 
 ad hoc parameters k1-k3   :    16.0000     1.3333    -4.0000 

 Edisp/kcal,au: -1.499740107600  -0.002389987737 
 E6   /kcal   :  -0.849154466 
 E8   /kcal   :  -0.650585641 
 % E8         :  43.379892163 

-------------------------   ----------------
Dispersion correction           -0.002389988
-------------------------   ----------------


-------------------------   --------------------
FINAL SINGLE POINT ENERGY     -2591.890373087792
-------------------------   --------------------



           ************************************************************
           *        Program running with 64 parallel MPI-processes    *
           *              working on a common directory               *
           ************************************************************
------------------------------------------------------------------------------
                         ORCA SCF GRADIENT CALCULATION
------------------------------------------------------------------------------

Gradient of the Kohn-Sham DFT energy:
Kohn-Sham wavefunction type      ... RKS
Hartree-Fock exchange scaling    ...    0.250
Number of operators              ...    1
Number of atoms                  ...    5
Basis set dimensions             ...  165
Integral neglect threshold       ... 1.0e-12
Integral primitive cutoff        ... 1.0e-14
SHARK Integral package           ... ON

Nuc. rep. gradient       (SHARK) ... done (  0.0 sec)
HCore & Overlap gradient (SHARK) ... done (  0.0 sec)
Two-Electron gradient    (SHARK) ... (X-only)done (  2.9 sec)
RI-J gradient            (SHARK) ... done (  0.3 sec)
Exchange-correlation gradient    ... done
Dispersion correction            ... done

------------------
CARTESIAN GRADIENT
------------------

   1   I   :   -2.034220391   -6.198609315   -3.955624688
   2   C   :    0.974556096    2.970267061    1.895746613
   3   H   :    0.286993646    1.126967291    0.641283666
   4   H   :    0.331844558    1.031196211    0.767708645
   5   H   :    0.440826091    1.070178754    0.650885764

Difference to translation invariance:
           :    0.0000000007    0.0000000017    0.0000000003

Difference to rotation invariance:
           :    0.0001793069   -0.0000262199   -0.0000590985

Norm of the cartesian gradient     ...    8.7671927538
RMS gradient                       ...    2.2636794352
MAX gradient                       ...    6.1986093152

-------
TIMINGS
-------

Total SCF gradient time            ...        3.422 sec

One electron gradient       ....       0.007 sec  (  0.2%)
Two electron gradient       ....       2.896 sec  ( 84.6%)
RI-J Coulomb gradient       ....       0.345 sec  ( 10.1%)
XC gradient                 ....       0.068 sec  (  2.0%)

Maximum memory used throughout the entire SCFGRAD-calculation: 52.2 MB
------------------------------------------------------------------------------
                         ORCA GEOMETRY RELAXATION STEP
------------------------------------------------------------------------------

Reading the OPT-File                    .... done
Getting information on internals        .... done
Copying old internal coords+grads       .... done
Making the new internal coordinates     .... (new redundants).... done
Validating the new internal coordinates .... (new redundants).... done
Calculating the B-matrix                .... done
Calculating the G,G- and P matrices     .... done
Transforming gradient to internals      .... done
Projecting the internal gradient        .... done
Number of atoms                         ....   5
Number of internal coordinates          ....  10
Current Energy                          .... -2591.890373088 Eh
Current gradient norm                   ....     8.767192754 Eh/bohr
Maximum allowed component of the step   ....  0.300
Current trust radius                    ....  0.300
Evaluating the initial hessian          ....  (Almloef) done
Projecting the Hessian                  .... done
Forming the augmented Hessian           .... done
Diagonalizing the augmented Hessian     .... done
Last element of RFO vector              ....  0.710575712
Lowest eigenvalues of augmented Hessian:
 -8.269721059  0.268316726  0.292654603  0.292654722  0.294123904
Length of the computed step             ....  0.990212212
Warning: the length of the step is outside the trust region - taking restricted step instead
The input lambda is                     ....    -8.269721
   iter:   1  x=  -12.099482  g=    0.232526 f(x)=     0.890520
   iter:   2  x=  -17.041305  g=    0.075627 f(x)=     0.373735
   iter:   3  x=  -22.357911  g=    0.027386 f(x)=     0.145603
   iter:   4  x=  -26.248154  g=    0.012210 f(x)=     0.047500
   iter:   5  x=  -27.566290  g=    0.007570 f(x)=     0.009979
   iter:   6  x=  -27.673335  g=    0.006541 f(x)=     0.000700
   iter:   7  x=  -27.673958  g=    0.006466 f(x)=     0.000004
   iter:   8  x=  -27.673958  g=    0.006466 f(x)=     0.000000
   iter:   9  x=  -27.673958  g=    0.006466 f(x)=     0.000000
The output lambda is                    ....   -27.673958 (9 iterations)
The final length of the internal step   ....  0.300000000
Converting the step to cartesian space:
 Initial RMS(Int)=    0.0948683298
Transforming coordinates:
 Iter   0:  RMS(Cart)=    0.0847657877 RMS(Int)=    0.0944074644
 Iter   1:  RMS(Cart)=    0.0012180938 RMS(Int)=    0.0016793688
 Iter   2:  RMS(Cart)=    0.0000598280 RMS(Int)=    0.0000777322
 Iter   3:  RMS(Cart)=    0.0000019154 RMS(Int)=    0.0000020759
 Iter   4:  RMS(Cart)=    0.0000001430 RMS(Int)=    0.0000001954
 Iter   5:  RMS(Cart)=    0.0000000089 RMS(Int)=    0.0000000119
done
Storing new coordinates                 .... done

                                .--------------------.
          ----------------------|Geometry convergence|-------------------------
          Item                value                   Tolerance       Converged
          ---------------------------------------------------------------------
          RMS gradient        2.6410258832            0.0000080000      NO
          MAX gradient        7.6294021174            0.0000300000      NO
          RMS step            0.0948683298            0.0001000000      NO
          MAX step            0.2743085254            0.0002000000      NO
          ........................................................
          Max(Bonds)      0.1452      Max(Angles)    2.90
          Max(Dihed)        0.00      Max(Improp)    0.00
          ---------------------------------------------------------------------

The optimization has not yet converged - more geometry cycles are needed


    ---------------------------------------------------------------------------
                         Redundant Internal Coordinates
                            (Angstroem and degrees)

        Definition                    Value    dE/dq     Step     New-Value
    ----------------------------------------------------------------------------
     1. B(C   1,I   0)                2.1286  7.629402 -0.1452    1.9835   
     2. B(H   2,C   1)                1.0846  0.311589 -0.0059    1.0787   
     3. B(H   3,C   1)                1.0846  0.311502 -0.0059    1.0787   
     4. B(H   4,C   1)                1.0846  0.311647 -0.0059    1.0787   
     5. A(I   0,C   1,H   3)          107.67  1.417085   -2.90    104.77   
     6. A(H   2,C   1,H   3)          111.21 -1.319815    2.70    113.91   
     7. A(I   0,C   1,H   4)          107.67  1.417700   -2.90    104.77   
     8. A(H   2,C   1,H   4)          111.21 -1.319124    2.70    113.91   
     9. A(H   3,C   1,H   4)          111.21 -1.319383    2.70    113.91   
    10. A(I   0,C   1,H   2)          107.67  1.417878   -2.90    104.77   
    ----------------------------------------------------------------------------

         *************************************************************
         *                GEOMETRY OPTIMIZATION CYCLE   2            *
         *************************************************************
---------------------------------
CARTESIAN COORDINATES (ANGSTROEM)
---------------------------------
  I     -2.312108   -6.910386    5.765082
  C     -1.783258   -5.298861    6.793389
  H     -0.981236   -5.633538    7.432469
  H     -1.475052   -4.585906    6.044805
  H     -2.674903   -5.011053    7.327995

----------------------------
CARTESIAN COORDINATES (A.U.)
----------------------------
  NO LB      ZA    FRAG     MASS         X           Y           Z
   0 I    53.0000    0   126.900   -4.369250  -13.058737   10.894426
   1 C     6.0000    0    12.011   -3.369869  -10.013397   12.837644
   2 H     1.0000    0     1.008   -1.854267  -10.645844   14.045331
   3 H     1.0000    0     1.008   -2.787445   -8.666107   11.423026
   4 H     1.0000    0     1.008   -5.054834   -9.469517   13.847904

--------------------------------
INTERNAL COORDINATES (ANGSTROEM)
--------------------------------
 I      0   0   0     0.000000000000     0.00000000     0.00000000
 C      1   0   0     1.983458410990     0.00000000     0.00000000
 H      2   1   0     1.078736495319   104.67320915     0.00000000
 H      2   1   3     1.078736931109   104.67834377   120.00164976
 H      2   1   3     1.078734927084   104.67389793   240.00284006

---------------------------
INTERNAL COORDINATES (A.U.)
---------------------------
 I      0   0   0     0.000000000000     0.00000000     0.00000000
 C      1   0   0     3.748193194793     0.00000000     0.00000000
 H      2   1   0     2.038516546819   104.67320915     0.00000000
 H      2   1   3     2.038517370344   104.67834377   120.00164976
 H      2   1   3     2.038513583284   104.67389793   240.00284006



           ************************************************************
           *        Program running with 64 parallel MPI-processes    *
           *              working on a common directory               *
           ************************************************************
------------------------------------------------------------------------------
                   ___                                                        
                  /   \      - P O W E R E D   B Y -                         
                 /     \                                                     
                 |  |  |   _    _      __       _____    __    __             
                 |  |  |  | |  | |    /  \     |  _  \  |  |  /  |          
                  \  \/   | |  | |   /    \    | | | |  |  | /  /          
                 / \  \   | |__| |  /  /\  \   | |_| |  |  |/  /          
                |  |  |   |  __  | /  /__\  \  |    /   |      \           
                |  |  |   | |  | | |   __   |  |    \   |  |\   \          
                \     /   | |  | | |  |  |  |  | |\  \  |  | \   \       
                 \___/    |_|  |_| |__|  |__|  |_| \__\ |__|  \__/        
                                                                              
                      - O R C A' S   B I G   F R I E N D -                    
                                      &                                       
                       - I N T E G R A L  F E E D E R -                       
                                                                              
 v1 FN, 2020, v2 2021                                                         
------------------------------------------------------------------------------


Reading SHARK input file orca.SHARKINP.tmp ... ok
----------------------
SHARK INTEGRAL PACKAGE
----------------------

Number of atoms                             ...      5
Number of basis functions                   ...    199
Number of shells                            ...     75
Maximum angular momentum                    ...      4
Integral batch strategy                     ... SHARK/LIBINT Hybrid
RI-J (if used) integral strategy            ... SPLIT-RIJ (Revised 2003 algorithm where possible)
Printlevel                                  ...      1
Contraction scheme used                     ... PARTIAL GENERAL contraction
Coulomb Range Separation                    ... NOT USED
Exchange Range Separation                   ... NOT USED
Finite Nucleus Model                        ... NOT USED
Auxiliary Coulomb fitting basis             ... AVAILABLE
   # of basis functions in Aux-J            ...    140
   # of shells in Aux-J                     ...     48
   Maximum angular momentum in Aux-J        ...      4
Auxiliary J/K fitting basis                 ... NOT available
Auxiliary Correlation fitting basis         ... NOT available
Auxiliary 'external' fitting basis          ... NOT available
Integral threshold                          ...     1.000000e-12
Primitive cut-off                           ...     1.000000e-14
Primitive pair pre-selection threshold      ...     1.000000e-14

Calculating pre-screening integrals         ... done (  0.0 sec) Dimension = 75
Calculating pre-screening integrals (ORCA)  ... done (  0.1 sec) Dimension = 55
Organizing shell pair data                  ... done (  0.0 sec)
Shell pair information
Total number of shell pairs                 ...      2850
Shell pairs after pre-screening             ...      2714
Total number of primitive shell pairs       ...      4038
Primitive shell pairs kept                  ...      3677
          la=0 lb=0:    572 shell pairs
          la=1 lb=0:    787 shell pairs
          la=1 lb=1:    292 shell pairs
          la=2 lb=0:    379 shell pairs
          la=2 lb=1:    261 shell pairs
          la=2 lb=2:     66 shell pairs
          la=3 lb=0:    133 shell pairs
          la=3 lb=1:     95 shell pairs
          la=3 lb=2:     44 shell pairs
          la=3 lb=3:     10 shell pairs
          la=4 lb=0:     35 shell pairs
          la=4 lb=1:     24 shell pairs
          la=4 lb=2:     11 shell pairs
          la=4 lb=3:      4 shell pairs
          la=4 lb=4:      1 shell pairs

Calculating one electron integrals          ... done (  0.0 sec)
Calculating RI/J V-Matrix + Cholesky decomp.... done (  0.0 sec)
Calculating Nuclear repulsion               ... done (  0.0 sec) ENN=    128.389742833020 Eh

SHARK setup successfully completed in   0.3 seconds

Maximum memory used throughout the entire GTOINT-calculation: 31.2 MB


           ************************************************************
           *        Program running with 64 parallel MPI-processes    *
           *              working on a common directory               *
           ************************************************************

Diagonalization of the overlap matrix:
Smallest eigenvalue                        ... 5.868e-05
Time for diagonalization                   ...    0.003 sec
Threshold for overlap eigenvalues          ... 1.000e-08
Number of eigenvalues below threshold      ... 0
Time for construction of square roots      ...    0.002 sec
Total time needed                          ...    0.015 sec

-------------------
DFT GRID GENERATION
-------------------

General Integration Accuracy     IntAcc      ... 4.959
Radial Grid Type                 RadialGrid  ... OptM3 with GC (2021)
Angular Grid (max. ang.)         AngularGrid ... 6 (Lebedev-590)
Angular grid pruning method      GridPruning ... 4 (adaptive)
Weight generation scheme         WeightScheme... Becke
Basis function cutoff            BFCut       ... 1.0000e-12
Integration weight cutoff        WCut        ... 1.0000e-14
Angular grids for H and He will be reduced by one unit
Partially contracted basis set               ... off
Rotationally invariant grid construction     ... off

Total number of grid points                  ...    66215
Total number of batches                      ...     1038
Average number of points per batch           ...       63
Average number of grid points per atom       ...    13243
Time for grid setup =    0.773 sec

--------------
SCF ITERATIONS
--------------
ITER       Energy         Delta-E        Max-DP      RMS-DP      [F,P]     Damp
               ***  Starting incremental Fock matrix formation  ***
  0  -2591.8712528936   0.000000000000200.76229172  1.64498358  2.5332168 0.7000
  1  -2592.7625732261  -0.891320332476140.85972259  1.15481400  1.7734373 0.7000
  2  -2593.3868653337  -0.62429210757998.02914757  0.80380094  1.2415168 0.7000
                      *** Initiating the SOSCF procedure ***
                      *** Re-Reading the Fockian *** 
                      *** Removing any level shift *** 
ITER      Energy       Delta-E        Grad      Rot      Max-DP    RMS-DP
  3  -2593.82404645  -0.4371811136  0.002442  0.002442 227.737416  1.867767
               *** Restarting incremental Fock matrix formation ***
  4  -2594.84481338  -1.0207669285  0.002660  0.004166  0.760693  0.007286
  5  -2594.84484594  -0.0000325665  0.001338  0.002661  0.792051  0.006839
  6  -2594.84487092  -0.0000249763  0.000582  0.001387  0.214832  0.001912
  7  -2594.84487607  -0.0000051506  0.000306  0.001642  0.113573  0.001063
  8  -2594.84487811  -0.0000020458  0.000218  0.002379  0.056593  0.000585
  9  -2594.84488004  -0.0000019221  0.000121  0.004225  0.070872  0.000857
 10  -2594.84488207  -0.0000020321  0.000097  0.005243  0.049735  0.000790
 11  -2594.84488304  -0.0000009752  0.000054  0.000314  0.020383  0.000189
 12  -2594.84488312  -0.0000000710  0.000050  0.000226  0.005406  0.000084
 13  -2594.84488315  -0.0000000355  0.000022  0.000174  0.011652  0.000115
 14  -2594.84488317  -0.0000000190  0.000016  0.000154  0.005241  0.000054
 15  -2594.84488318  -0.0000000054  0.000003  0.000072  0.001988  0.000023
 16  -2594.84488318  -0.0000000004  0.000001  0.000001  0.001329  0.000012
                  ***Gradient check signals convergence***
              ***Rediagonalizing the Fockian in SOSCF/NRSCF***

               *****************************************************
               *                     SUCCESS                       *
               *           SCF CONVERGED AFTER  17 CYCLES          *
               *****************************************************

Total Energy       :        -2594.84488318 Eh          -70609.31898 eV
  Last Energy change         ...    1.2733e-10  Tolerance :   1.0000e-09
  Last MAX-Density change    ...    5.9375e-04  Tolerance :   1.0000e-08
             **** THE GBW FILE WAS UPDATED (orca.gbw) ****
             **** DENSITY orca.scfp WAS UPDATED ****
             **** ENERGY FILE WAS UPDATED (orca.en.tmp) ****
             **** THE GBW FILE WAS UPDATED (orca.gbw) ****
             **** DENSITY orca.scfp WAS UPDATED ****
Total SCF time: 0 days 0 hours 0 min 8 sec 

Maximum memory used throughout the entire SCF-calculation: 30.1 MB


-------------------------------------------------------------------------------
                          DFT DISPERSION CORRECTION                            
                                                                               
                              DFTD3 V3.1  Rev 1                                
                          USING Becke-Johnson damping                          
-------------------------------------------------------------------------------
-------------------------   ----------------
Dispersion correction           -0.002419612
-------------------------   ----------------


-------------------------   --------------------
FINAL SINGLE POINT ENERGY     -2594.847302787382
-------------------------   --------------------



           ************************************************************
           *        Program running with 64 parallel MPI-processes    *
           *              working on a common directory               *
           ************************************************************
------------------------------------------------------------------------------
                         ORCA SCF GRADIENT CALCULATION
------------------------------------------------------------------------------

Gradient of the Kohn-Sham DFT energy:
Kohn-Sham wavefunction type      ... RKS
Hartree-Fock exchange scaling    ...    0.250
Number of operators              ...    1
Number of atoms                  ...    5
Basis set dimensions             ...  165
Integral neglect threshold       ... 1.0e-12
Integral primitive cutoff        ... 1.0e-14
SHARK Integral package           ... ON

Nuc. rep. gradient       (SHARK) ... done (  0.0 sec)
HCore & Overlap gradient (SHARK) ... done (  0.0 sec)
Two-Electron gradient    (SHARK) ... (X-only)done (  3.0 sec)
RI-J gradient            (SHARK) ... done (  0.3 sec)
Exchange-correlation gradient    ... done
Dispersion correction            ... done

------------------
CARTESIAN GRADIENT
------------------

   1   I   :   -2.807684436   -8.555437295   -5.459422341
   2   C   :    1.600921461    4.879981970    3.114312377
   3   H   :    0.356404780    1.260562556    0.750137526
   4   H   :    0.387523202    1.193927604    0.838107021
   5   H   :    0.462834994    1.220965163    0.756865417

Difference to translation invariance:
           :    0.0000000009   -0.0000000024   -0.0000000001

Difference to rotation invariance:
           :    0.0002104537   -0.0000422212   -0.0000368971

Norm of the cartesian gradient     ...   12.4013964306
RMS gradient                       ...    3.2020267897
MAX gradient                       ...    8.5554372952

-------
TIMINGS
-------

Total SCF gradient time            ...        3.522 sec

One electron gradient       ....       0.007 sec  (  0.2%)
Two electron gradient       ....       2.978 sec  ( 84.6%)
RI-J Coulomb gradient       ....       0.348 sec  (  9.9%)
XC gradient                 ....       0.076 sec  (  2.1%)

Maximum memory used throughout the entire SCFGRAD-calculation: 52.2 MB
------------------------------------------------------------------------------
                         ORCA GEOMETRY RELAXATION STEP
------------------------------------------------------------------------------

Reading the OPT-File                    .... done
Getting information on internals        .... done
Copying old internal coords+grads       .... done
Making the new internal coordinates     .... (new redundants).... done
Validating the new internal coordinates .... (new redundants).... done
Calculating the B-matrix                .... done
Calculating the G,G- and P matrices     .... done
Transforming gradient to internals      .... done
Projecting the internal gradient        .... done
Number of atoms                         ....   5
Number of internal coordinates          ....  10
Current Energy                          .... -2594.847302787 Eh
Current gradient norm                   ....    12.401396431 Eh/bohr
[...]
          la=2 lb=0:    385 shell pairs
          la=2 lb=1:    264 shell pairs
          la=2 lb=2:     66 shell pairs
          la=3 lb=0:    140 shell pairs
          la=3 lb=1:     96 shell pairs
          la=3 lb=2:     44 shell pairs
          la=3 lb=3:     10 shell pairs
          la=4 lb=0:     35 shell pairs
          la=4 lb=1:     24 shell pairs
          la=4 lb=2:     11 shell pairs
          la=4 lb=3:      4 shell pairs
          la=4 lb=4:      1 shell pairs

Calculating one electron integrals          ... done (  0.0 sec)
Calculating RI/J V-Matrix + Cholesky decomp.... done (  0.0 sec)
Calculating Nuclear repulsion               ... done (  0.0 sec) ENN=    227.340602159473 Eh

SHARK setup successfully completed in   0.3 seconds

Maximum memory used throughout the entire GTOINT-calculation: 31.3 MB


           ************************************************************
           *        Program running with 64 parallel MPI-processes    *
           *              working on a common directory               *
           ************************************************************

Diagonalization of the overlap matrix:
Smallest eigenvalue                        ... 3.762e-05
Time for diagonalization                   ...    0.003 sec
Threshold for overlap eigenvalues          ... 1.000e-08
Number of eigenvalues below threshold      ... 0
Time for construction of square roots      ...    0.003 sec
Total time needed                          ...    0.006 sec

-------------------
DFT GRID GENERATION
-------------------

General Integration Accuracy     IntAcc      ... 4.959
Radial Grid Type                 RadialGrid  ... OptM3 with GC (2021)
Angular Grid (max. ang.)         AngularGrid ... 6 (Lebedev-590)
Angular grid pruning method      GridPruning ... 4 (adaptive)
Weight generation scheme         WeightScheme... Becke
Basis function cutoff            BFCut       ... 1.0000e-12
Integration weight cutoff        WCut        ... 1.0000e-14
Angular grids for H and He will be reduced by one unit
Partially contracted basis set               ... off
Rotationally invariant grid construction     ... off

Total number of grid points                  ...    66032
Total number of batches                      ...     1034
Average number of points per batch           ...       63
Average number of grid points per atom       ...    13206
Time for grid setup =    0.710 sec

--------------
SCF ITERATIONS
--------------
ITER       Energy         Delta-E        Max-DP      RMS-DP      [F,P]     Damp
               ***  Starting incremental Fock matrix formation  ***
  0  -2610.9124263282   0.0000000000001974.12460553 15.98265687  8.3993857 0.7000
  1  -2621.1543291010 -10.2419027728321370.74409654 11.09674423  5.8816967 0.7000
  2  -2628.3140687825  -7.159739681489951.31987154  7.70016821  4.1178590 0.7000
  3  -2633.3275133543  -5.013444571733662.96524234  5.36592563  2.8823373 0.7000
  4  -2636.8378460152  -3.510332660927463.38110422  3.75057523  2.0173818 0.7000
  5  -2639.2955530657  -2.457707050536324.18751845  2.62402675  1.4120116 0.7000
                      *** Initiating the SOSCF procedure ***
                      *** Re-Reading the Fockian *** 
                      *** Removing any level shift *** 
ITER      Energy       Delta-E        Grad      Rot      Max-DP    RMS-DP
  6  -2641.01628570  -1.7207326351  0.003256  0.003256 755.896857  6.118531
               *** Restarting incremental Fock matrix formation ***
  7  -2645.03272980  -4.0164440977  0.005027  0.061725  1.848051  0.019337
  8  -2645.03414257  -0.0014127705  0.003175  0.162311  2.436603  0.046023
  9  -2645.03474245  -0.0005998784  0.012357  0.042457  0.598695  0.010773
 10  -2645.03586616  -0.0011237125  0.005527  0.010340  6.351589  0.052640
 11  -2645.03611795  -0.0002517904  0.003585  0.020389  3.097700  0.027383
 12  -2645.03641551  -0.0002975567  0.001414  0.025511  0.258341  0.005504
 13  -2645.03647915  -0.0000636398  0.000629  0.038976  0.372347  0.008464
 14  -2645.03655823  -0.0000790811  0.000891  0.149385  1.374039  0.031685
 15  -2645.03679906  -0.0002408294  0.002520  0.418353  9.751545  0.110625
 16  -2645.02921285   0.0075862053  0.027069  0.386888  9.852250  0.108737
 17  -2645.03696603  -0.0077531828  0.000897  0.025139  0.377277  0.004164
 18  -2645.03705474  -0.0000887018  0.000699  0.310025  4.241982  0.050904
 19  -2645.03706913  -0.0000143911  0.006771  0.207170  3.598532  0.039628
 20  -2645.03737622  -0.0003070948  0.001286  0.069963  0.512328  0.009643
 21  -2645.03760192  -0.0002257019  0.000628  0.470109  4.506280  0.067458
 22  -2645.02813356   0.0094683693  0.027397  0.449188  4.480158  0.065537
 23  -2645.03765501  -0.0095214531  0.000532  0.018497  0.066881  0.002082
 24  -2645.03769807  -0.0000430596  0.000473  0.162881  0.538854  0.017994
 25  -2645.03764748   0.0000505875  0.004068  0.102960  0.431131  0.012110
 26  -2645.03779891  -0.0001514275  0.000268  0.024593  0.076468  0.002410
               *** Restarting incremental Fock matrix formation ***
 27  -2645.03782270  -0.0000237902  0.000585  0.038757  0.118468  0.003664
 28  -2645.03783976  -0.0000170614  0.001091  0.007293  0.066555  0.001223
 29  -2645.03784908  -0.0000093236  0.000866  0.031391  0.181982  0.004587
 30  -2645.03786959  -0.0000205060  0.000138  0.029084  0.125983  0.003274
 31  -2645.03787591  -0.0000063193  0.000210  0.057554  0.281255  0.006787

          ************************************************************
          *                     SERIOUS PROBLEM IN SOSCF             *
          *                     ------------------------             *
          *                  LARGE STEP WAS ABOUT TO BE TAKEN        *
          *                         ABORTING THE RUN                 *
          ************************************************************
              ***Rediagonalizing the Fockian in SOSCF/NRSCF***

               *****************************************************
               *                      ERROR                        *
               *        SCF NOT CONVERGED AFTER  32 CYCLES         *
               *****************************************************

  Last Energy change         ...   -6.3193e-06  Tolerance :   1.0000e-09
  Last MAX-Density change    ...    0.0000e+00  Tolerance :   1.0000e-08
================================================================================
                                        WARNING
Check your MOs and check whether a frozen core calculation is appropriate
MO 15 should be a I  f core orbital but seems to be delocalized with a C  s orbital (61.4% vs. 24.8%)
================================================================================
================================================================================
                                        WARNING
Check your MOs and check whether a frozen core calculation is appropriate
MO 16 should be a I  f core orbital but seems to be delocalized with a C  p orbital (85.7% vs.  8.9%)
================================================================================
================================================================================
                                        WARNING
Check your MOs and check whether a frozen core calculation is appropriate
MO 17 should be a I  f core orbital but seems to be delocalized with a C  p orbital (85.9% vs.  8.9%)
================================================================================

================================================================================
MOs in valence range (operator=0) identified as core orbitals.
Correct this by swapping MOs
                           MOs 19 and 4
                                               done
================================================================================

             **** DENSITY orca.scfp WAS UPDATED ****
             **** ENERGY FILE WAS UPDATED (orca.en.tmp) ****

     --------------------------------------------------------------------
                                      WARNING
     The wavefunction IS NOT YET CONVERGED! It shows however signs of
     convergence. Therefore the wavefunction will be stored and can be
     used as input for another calculation. 
     DO NOT USE THIS WAVEFUNCTION  FOR ANYHTING ELSE. It is NOT RELIABLE
     --------------------------------------------------------------------

Total SCF time: 0 days 0 hours 0 min 16 sec 

Maximum memory used throughout the entire SCF-calculation: 30.2 MB


-------------------------------------------------------------------------------
                          DFT DISPERSION CORRECTION                            
                                                                               
                              DFTD3 V3.1  Rev 1                                
                          USING Becke-Johnson damping                          
-------------------------------------------------------------------------------
-------------------------   ----------------
Dispersion correction           -0.002477191
-------------------------   ----------------


-------------------------   --------------------
FINAL SINGLE POINT ENERGY     -2645.040364746114   (Wavefunction not fully converged!)
-------------------------   --------------------



           ************************************************************
           *        Program running with 64 parallel MPI-processes    *
           *              working on a common directory               *
           ************************************************************
------------------------------------------------------------------------------
                         ORCA SCF GRADIENT CALCULATION
------------------------------------------------------------------------------

Gradient of the Kohn-Sham DFT energy:
Kohn-Sham wavefunction type      ... RKS
Hartree-Fock exchange scaling    ...    0.250
Number of operators              ...    1
Number of atoms                  ...    5
Basis set dimensions             ...  165
Integral neglect threshold       ... 1.0e-12
Integral primitive cutoff        ... 1.0e-14
SHARK Integral package           ... ON

Nuc. rep. gradient       (SHARK) ... done (  0.0 sec)
HCore & Overlap gradient (SHARK) ... done (  0.0 sec)
Two-Electron gradient    (SHARK) ... (X-only)done (  3.2 sec)
RI-J gradient            (SHARK) ... done (  0.3 sec)
Exchange-correlation gradient    ... done
Dispersion correction            ... done

------------------
CARTESIAN GRADIENT
------------------

   1   I   :   -8.180315128  -25.105625631  -15.958401566
   2   C   :    2.802174373    8.606322414    5.470458608
   3   H   :    7.667499825    1.000700390    7.497111352
   4   H   :    3.697984614    9.465164475   -3.681529534
   5   H   :   -5.987343683    6.033438350    6.672361141

Difference to translation invariance:
           :   -0.0000000002   -0.0000000030    0.0000000001

Difference to rotation invariance:
           :    0.0009316999    0.0003227835   -0.0009762738

Norm of the cartesian gradient     ...   37.5940852580
RMS gradient                       ...    9.7067510747
MAX gradient                       ...   25.1056256313

-------
TIMINGS
-------

Total SCF gradient time            ...        3.782 sec

One electron gradient       ....       0.007 sec  (  0.2%)
Two electron gradient       ....       3.235 sec  ( 85.5%)
RI-J Coulomb gradient       ....       0.346 sec  (  9.2%)
XC gradient                 ....       0.088 sec  (  2.3%)

Maximum memory used throughout the entire SCFGRAD-calculation: 52.3 MB
------------------------------------------------------------------------------
                         ORCA GEOMETRY RELAXATION STEP
------------------------------------------------------------------------------

Reading the OPT-File                    .... done
Getting information on internals        .... done
Copying old internal coords+grads       .... done
Making the new internal coordinates     .... (new redundants).... done
Validating the new internal coordinates .... (new redundants).... done
Calculating the B-matrix                .... done
Calculating the G,G- and P matrices     .... done
Transforming gradient to internals      .... done
Projecting the internal gradient        .... done
Number of atoms                         ....   5
Number of internal coordinates          ....  10
Current Energy                          .... -2645.040364746 Eh
Current gradient norm                   ....    37.594085258 Eh/bohr
Maximum allowed component of the step   ....  0.300
Current trust radius                    ....  0.300
Updating the Hessian (BFGS)             .... done
Forming the augmented Hessian           .... done
Diagonalizing the augmented Hessian     .... done
Last element of RFO vector              ....  0.536843195
Lowest eigenvalues of augmented Hessian:
 -58.850348849 -11.780203899  0.281284291  0.292654586  0.292658311
Length of the computed step             ....  1.571561393
Warning: the length of the step is outside the trust region - taking restricted step instead
The input lambda is                     ....   -58.850349
   iter:   1  x=  -69.498582  g=    0.223493 f(x)=     2.379805
   iter:   2  x=  -85.054813  g=    0.067445 f(x)=     1.049189
   iter:   3  x= -106.247911  g=    0.021265 f(x)=     0.450664
   iter:   4  x= -130.930020  g=    0.007368 f(x)=     0.181846
   iter:   5  x= -151.607104  g=    0.003067 f(x)=     0.063419
   iter:   6  x= -160.568637  g=    0.001734 f(x)=     0.015540
   iter:   7  x= -161.699764  g=    0.001398 f(x)=     0.001581
   iter:   8  x= -161.714816  g=    0.001362 f(x)=     0.000020
   iter:   9  x= -161.714818  g=    0.001361 f(x)=     0.000000
   iter:  10  x= -161.714818  g=    0.001361 f(x)=     0.000000
   iter:  11  x= -161.714818  g=    0.001361 f(x)=     0.000000
   iter:  12  x= -161.714818  g=    0.001361 f(x)=     0.000000
   iter:  13  x= -161.714818  g=    0.001361 f(x)=     0.000000
   iter:  14  x= -161.714818  g=    0.001361 f(x)=     0.000000
   iter:  15  x= -161.714818  g=    0.001361 f(x)=     0.000000
   iter:  16  x= -161.714818  g=    0.001361 f(x)=     0.000000
   iter:  17  x= -161.714818  g=    0.001361 f(x)=     0.000000
   iter:  18  x= -161.714818  g=    0.001361 f(x)=     0.000000
   iter:  19  x= -161.714818  g=    0.001361 f(x)=     0.000000
   iter:  20  x= -161.714818  g=    0.001361 f(x)=     0.000000
   iter:  21  x= -161.714818  g=    0.001361 f(x)=     0.000000
   iter:  22  x= -161.714818  g=    0.001361 f(x)=     0.000000
   iter:  23  x= -161.714818  g=    0.001361 f(x)=     0.000000
   iter:  24  x= -161.714818  g=    0.001361 f(x)=     0.000000
   iter:  25  x= -161.714818  g=    0.001361 f(x)=     0.000000
   iter:  26  x= -161.714818  g=    0.001361 f(x)=     0.000000
   iter:  27  x= -161.714818  g=    0.001361 f(x)=     0.000000
   iter:  28  x= -161.714818  g=    0.001361 f(x)=     0.000000
   iter:  29  x= -161.714818  g=    0.001361 f(x)=     0.000000
   iter:  30  x= -161.714818  g=    0.001361 f(x)=     0.000000
   iter:  31  x= -161.714818  g=    0.001361 f(x)=     0.000000
   iter:  32  x= -161.714818  g=    0.001361 f(x)=     0.000000
   iter:  33  x= -161.714818  g=    0.001361 f(x)=     0.000000
   iter:  34  x= -161.714818  g=    0.001361 f(x)=     0.000000
   iter:  35  x= -161.714818  g=    0.001361 f(x)=     0.000000
   iter:  36  x= -161.714818  g=    0.001361 f(x)=     0.000000
   iter:  37  x= -161.714818  g=    0.001361 f(x)=     0.000000
   iter:  38  x= -161.714818  g=    0.001361 f(x)=     0.000000
   iter:  39  x= -161.714818  g=    0.001361 f(x)=     0.000000
   iter:  40  x= -161.714818  g=    0.001361 f(x)=     0.000000
   iter:  41  x= -161.714818  g=    0.001361 f(x)=     0.000000
   iter:  42  x= -161.714818  g=    0.001361 f(x)=     0.000000
   iter:  43  x= -161.714818  g=    0.001361 f(x)=     0.000000
   iter:  44  x= -161.714818  g=    0.001361 f(x)=     0.000000
   iter:  45  x= -161.714818  g=    0.001361 f(x)=     0.000000
   iter:  46  x= -161.714818  g=    0.001361 f(x)=     0.000000
   iter:  47  x= -161.714818  g=    0.001361 f(x)=     0.000000
   iter:  48  x= -161.714818  g=    0.001361 f(x)=     0.000000
   iter:  49  x= -161.714818  g=    0.001361 f(x)=     0.000000
   iter:  50  x= -161.714818  g=    0.001361 f(x)=     0.000000
   iter:  51  x= -161.714818  g=    0.001361 f(x)=     0.000000
   iter:  52  x= -161.714818  g=    0.001361 f(x)=     0.000000
   iter:  53  x= -161.714818  g=    0.001361 f(x)=     0.000000
   iter:  54  x= -161.714818  g=    0.001361 f(x)=     0.000000
   iter:  55  x= -161.714818  g=    0.001361 f(x)=     0.000000
   iter:  56  x= -161.714818  g=    0.001361 f(x)=     0.000000
   iter:  57  x= -161.714818  g=    0.001361 f(x)=     0.000000
   iter:  58  x= -161.714818  g=    0.001361 f(x)=     0.000000
   iter:  59  x= -161.714818  g=    0.001361 f(x)=     0.000000
   iter:  60  x= -161.714818  g=    0.001361 f(x)=     0.000000
   iter:  61  x= -161.714818  g=    0.001361 f(x)=     0.000000
   iter:  62  x= -161.714818  g=    0.001361 f(x)=     0.000000
   iter:  63  x= -161.714818  g=    0.001361 f(x)=     0.000000
   iter:  64  x= -161.714818  g=    0.001361 f(x)=     0.000000
   iter:  65  x= -161.714818  g=    0.001361 f(x)=     0.000000
   iter:  66  x= -161.714818  g=    0.001361 f(x)=     0.000000
   iter:  67  x= -161.714818  g=    0.001361 f(x)=     0.000000
   iter:  68  x= -161.714818  g=    0.001361 f(x)=     0.000000
   iter:  69  x= -161.714818  g=    0.001361 f(x)=     0.000000
   iter:  70  x= -161.714818  g=    0.001361 f(x)=     0.000000
   iter:  71  x= -161.714818  g=    0.001361 f(x)=     0.000000
   iter:  72  x= -161.714818  g=    0.001361 f(x)=     0.000000
   iter:  73  x= -161.714818  g=    0.001361 f(x)=     0.000000
   iter:  74  x= -161.714818  g=    0.001361 f(x)=     0.000000
   iter:  75  x= -161.714818  g=    0.001361 f(x)=     0.000000
   iter:  76  x= -161.714818  g=    0.001361 f(x)=     0.000000
   iter:  77  x= -161.714818  g=    0.001361 f(x)=     0.000000
   iter:  78  x= -161.714818  g=    0.001361 f(x)=     0.000000
   iter:  79  x= -161.714818  g=    0.001361 f(x)=     0.000000
   iter:  80  x= -161.714818  g=    0.001361 f(x)=     0.000000
   iter:  81  x= -161.714818  g=    0.001361 f(x)=     0.000000
   iter:  82  x= -161.714818  g=    0.001361 f(x)=     0.000000
   iter:  83  x= -161.714818  g=    0.001361 f(x)=     0.000000
   iter:  84  x= -161.714818  g=    0.001361 f(x)=     0.000000
   iter:  85  x= -161.714818  g=    0.001361 f(x)=     0.000000
   iter:  86  x= -161.714818  g=    0.001361 f(x)=     0.000000
   iter:  87  x= -161.714818  g=    0.001361 f(x)=     0.000000
   iter:  88  x= -161.714818  g=    0.001361 f(x)=     0.000000
   iter:  89  x= -161.714818  g=    0.001361 f(x)=     0.000000
   iter:  90  x= -161.714818  g=    0.001361 f(x)=     0.000000
   iter:  91  x= -161.714818  g=    0.001361 f(x)=     0.000000
   iter:  92  x= -161.714818  g=    0.001361 f(x)=     0.000000
   iter:  93  x= -161.714818  g=    0.001361 f(x)=     0.000000
   iter:  94  x= -161.714818  g=    0.001361 f(x)=     0.000000
   iter:  95  x= -161.714818  g=    0.001361 f(x)=     0.000000
   iter:  96  x= -161.714818  g=    0.001361 f(x)=     0.000000
   iter:  97  x= -161.714818  g=    0.001361 f(x)=     0.000000
   iter:  98  x= -161.714818  g=    0.001361 f(x)=     0.000000
   iter:  99  x= -161.714818  g=    0.001361 f(x)=     0.000000
   iter: 100  x= -161.714818  g=    0.001361 f(x)=     0.000000
   iter: 101  x= -161.714818  g=    0.001361 f(x)=     0.000000
[file orca_gstep/orca_gstep.cpp, line 806]: Error (ORCA_GSTEP): The lambda equations have not converged


ORCA finished by error termination in GSTEP
Calling Command: /mnt/proj3/open-27-19/spe0047/orca_5_0_4_linux_x86-64_openmpi411/orca_gstep orca.ginp.tmp 
[file orca_tools/qcmsg.cpp, line 465]: 
  .... aborting the run

