
                                 *****************
                                 * O   R   C   A *
                                 *****************

                                            #,                                       
                                            ###                                      
                                            ####                                     
                                            #####                                    
                                            ######                                   
                                           ########,                                 
                                     ,,################,,,,,                         
                               ,,#################################,,                 
                          ,,##########################################,,             
                       ,#########################################, ''#####,          
                    ,#############################################,,   '####,        
                  ,##################################################,,,,####,       
                ,###########''''           ''''###############################       
              ,#####''   ,,,,##########,,,,          '''####'''          '####       
            ,##' ,,,,###########################,,,                        '##       
           ' ,,###''''                  '''############,,,                           
         ,,##''                                '''############,,,,        ,,,,,,###''
      ,#''                                            '''#######################'''  
     '                                                          ''''####''''         
             ,#######,   #######,   ,#######,      ##                                
            ,#'     '#,  ##    ##  ,#'     '#,    #''#        ######   ,####,        
            ##       ##  ##   ,#'  ##            #'  '#       #        #'  '#        
            ##       ##  #######   ##           ,######,      #####,   #    #        
            '#,     ,#'  ##    ##  '#,     ,#' ,#      #,         ##   #,  ,#        
             '#######'   ##     ##  '#######'  #'      '#     #####' # '####'        



                  #######################################################
                  #                        -***-                        #
                  #          Department of theory and spectroscopy      #
                  #    Directorship and core code : Frank Neese         #
                  #        Max Planck Institute fuer Kohlenforschung    #
                  #                Kaiser Wilhelm Platz 1               #
                  #                 D-45470 Muelheim/Ruhr               #
                  #                      Germany                        #
                  #                                                     #
                  #                  All rights reserved                #
                  #                        -***-                        #
                  #######################################################


                         Program Version 5.0.4 -  RELEASE  -


 With contributions from (in alphabetic order):
   Daniel Aravena         : Magnetic Suceptibility
   Michael Atanasov       : Ab Initio Ligand Field Theory (pilot matlab implementation)
   Alexander A. Auer      : GIAO ZORA, VPT2 properties, NMR spectrum
   Ute Becker             : Parallelization
   Giovanni Bistoni       : ED, misc. LED, open-shell LED, HFLD
   Martin Brehm           : Molecular dynamics
   Dmytro Bykov           : SCF Hessian
   Vijay G. Chilkuri      : MRCI spin determinant printing, contributions to CSF-ICE
   Dipayan Datta          : RHF DLPNO-CCSD density
   Achintya Kumar Dutta   : EOM-CC, STEOM-CC
   Dmitry Ganyushin       : Spin-Orbit,Spin-Spin,Magnetic field MRCI
   Miquel Garcia          : C-PCM and meta-GGA Hessian, CC/C-PCM, Gaussian charge scheme
   Yang Guo               : DLPNO-NEVPT2, F12-NEVPT2, CIM, IAO-localization
   Andreas Hansen         : Spin unrestricted coupled pair/coupled cluster methods
   Benjamin Helmich-Paris : MC-RPA, TRAH-SCF, COSX integrals
   Lee Huntington         : MR-EOM, pCC
   Robert Izsak           : Overlap fitted RIJCOSX, COSX-SCS-MP3, EOM
   Marcus Kettner         : VPT2
   Christian Kollmar      : KDIIS, OOCD, Brueckner-CCSD(T), CCSD density, CASPT2, CASPT2-K
   Simone Kossmann        : Meta GGA functionals, TD-DFT gradient, OOMP2, MP2 Hessian
   Martin Krupicka        : Initial AUTO-CI
   Lucas Lang             : DCDCAS
   Marvin Lechner         : AUTO-CI (C++ implementation), FIC-MRCC
   Dagmar Lenk            : GEPOL surface, SMD
   Dimitrios Liakos       : Extrapolation schemes; Compound Job, initial MDCI parallelization
   Dimitrios Manganas     : Further ROCIS development; embedding schemes
   Dimitrios Pantazis     : SARC Basis sets
   Anastasios Papadopoulos: AUTO-CI, single reference methods and gradients
   Taras Petrenko         : DFT Hessian,TD-DFT gradient, ASA, ECA, R-Raman, ABS, FL, XAS/XES, NRVS
   Peter Pinski           : DLPNO-MP2, DLPNO-MP2 Gradient
   Christoph Reimann      : Effective Core Potentials
   Marius Retegan         : Local ZFS, SOC
   Christoph Riplinger    : Optimizer, TS searches, QM/MM, DLPNO-CCSD(T), (RO)-DLPNO pert. Triples
   Tobias Risthaus        : Range-separated hybrids, TD-DFT gradient, RPA, STAB
   Michael Roemelt        : Original ROCIS implementation
   Masaaki Saitow         : Open-shell DLPNO-CCSD energy and density
   Barbara Sandhoefer     : DKH picture change effects
   Avijit Sen             : IP-ROCIS
   Kantharuban Sivalingam : CASSCF convergence, NEVPT2, FIC-MRCI
   Bernardo de Souza      : ESD, SOC TD-DFT
   Georgi Stoychev        : AutoAux, RI-MP2 NMR, DLPNO-MP2 response
   Willem Van den Heuvel  : Paramagnetic NMR
   Boris Wezisla          : Elementary symmetry handling
   Frank Wennmohs         : Technical directorship


 We gratefully acknowledge several colleagues who have allowed us to
 interface, adapt or use parts of their codes:
   Stefan Grimme, W. Hujo, H. Kruse, P. Pracht,  : VdW corrections, initial TS optimization,
                  C. Bannwarth, S. Ehlert          DFT functionals, gCP, sTDA/sTD-DF
   Ed Valeev, F. Pavosevic, A. Kumar             : LibInt (2-el integral package), F12 methods
   Garnet Chan, S. Sharma, J. Yang, R. Olivares  : DMRG
   Ulf Ekstrom                                   : XCFun DFT Library
   Mihaly Kallay                                 : mrcc  (arbitrary order and MRCC methods)
   Jiri Pittner, Ondrej Demel                    : Mk-CCSD
   Frank Weinhold                                : gennbo (NPA and NBO analysis)
   Christopher J. Cramer and Donald G. Truhlar   : smd solvation model
   Lars Goerigk                                  : TD-DFT with DH, B97 family of functionals
   V. Asgeirsson, H. Jonsson                     : NEB implementation
   FAccTs GmbH                                   : IRC, NEB, NEB-TS, DLPNO-Multilevel, CI-OPT
                                                   MM, QMMM, 2- and 3-layer-ONIOM, Crystal-QMMM,
                                                   LR-CPCM, SF, NACMEs, symmetry and pop. for TD-DFT,
                                                   nearIR, NL-DFT gradient (VV10), updates on ESD,
                                                   ML-optimized integration grids
   S Lehtola, MJT Oliveira, MAL Marques          : LibXC Library
   Liviu Ungur et al                             : ANISO software


 Your calculation uses the libint2 library for the computation of 2-el integrals
 For citations please refer to: http://libint.valeyev.net

 Your ORCA version has been built with support for libXC version: 5.1.0
 For citations please refer to: https://tddft.org/programs/libxc/

 This ORCA versions uses:
   CBLAS   interface :  Fast vector & matrix operations
   LAPACKE interface :  Fast linear algebra routines
   SCALAPACK package :  Parallel linear algebra routines
   Shared memory     :  Shared parallel matrices
   BLAS/LAPACK       :  OpenBLAS 0.3.15  USE64BITINT DYNAMIC_ARCH NO_AFFINITY Zen SINGLE_THREADED
        Core in use  :  Zen
   Copyright (c) 2011-2014, The OpenBLAS Project




***************************************
The coordinates will be read from file: geom.xyz
***************************************


Your calculation utilizes the atom-pairwise dispersion correction
with the Becke-Johnson damping scheme (D3BJ)
Cite in your paper:
S.Grimme, S.Ehrlich, L.Goerigk, J Comput Chem, (2011), 32, 1456–1465 
S.Grimme, J.Antony, S.Ehrlich and H.Krieg, J.Chem.Phys., 132, (2010), 154104 
   

================================================================================

----- Orbital basis set information -----
Your calculation utilizes the basis: cc-pwCVDZ 
             H : cc-pVDZ. Obtained from the ccRepo (grant-hill.group.shef.ac.uk/ccrepo) Feb. 2017
                 T. H. Dunning, Jr., J. Chem. Phys. 90, 1007 (1989)
            He : cc-pVDZ. Obtained from the ccRepo (grant-hill.group.shef.ac.uk/ccrepo) Feb. 2017
                 D. E. Woon, T. H. Dunning, Jr., J. Chem. Phys. 100, 2975 (1994)
  Li-Be, Na-Mg : Obtained from the ccRepo (grant-hill.group.shef.ac.uk/ccrepo) Feb. 2017
                 B. P. Prascher, D. E. Woon, K. A. Peterson, T. H. Dunning, Jr., A. K. Wilson, Theor. Chem. Acc. 128, 69 (2011)
          B-Ne : Obtained from the ccRepo (grant-hill.group.shef.ac.uk/ccrepo) Feb. 2017
                 K. A. Peterson, T. H. Dunning, Jr., J. Chem. Phys. 117, 10548 (2002)
         Al-Ar : Obtained from the EMSL Basis Set Exchange (bse.pnl.gov) Feb. 2017
                 K. A. Peterson, T. H. Dunning, Jr., J. Chem. Phys. 117, 10548 (2002)
            Ca : Obtained from the Peterson Research Group Website (tyr0.chem.wsu.edu/~kipeters) Feb. 2017
                 J. Koput, K. A. Peterson, J. Phys. Chem. 106, 9595 (2002)
         Ga-Kr : Obtained from the Peterson Research Group Website (tyr0.chem.wsu.edu/~kipeters) Feb. 2017
                 K. A. Peterson, K. E. Yousaf, J. Chem. Phys. 133, 174116 (2010)
                 N. J. DeYonker, K. A. Peterson, A. K. Wilson, J. Phys. Chem. A 111, 11383 (2007)

The basis set includes element-specific modifications.

Your calculation utilizes the basis: cc-pwCVDZ-PP 
       Ca, Sr, Ba, Ra : Obtained from the Peterson Research Group Website (tyr0.chem.wsu.edu/~kipeters) Feb. 2017
                        H. Li, H. Feng, W. Sun, Y. Zhang, Q. Fan, K. A. Peterson, Y. Xie, H. F. Schaefer III, Mol. Phys. 111, 2292 (2013)
  Cu-Zn, Ag-Cd, Au-Hg : Obtained from the ccRepo (grant-hill.group.shef.ac.uk/ccrepo) Feb. 2017
                        K. A. Peterson, C. Puzzarini, Theor. Chem. Acc. 114, 283 (2005)
  Ga-Kr, In-Xe, Tl-Rn : Obtained from the ccRepo (grant-hill.group.shef.ac.uk/ccrepo) Feb. 2017
                        K. A. Peterson, K. E. Yousaf, J. Chem. Phys. 133, 174116 (2010)
                 Y-Pd : Obtained from the ccRepo (grant-hill.group.shef.ac.uk/ccrepo) Feb. 2017
                        K. A. Peterson, D. Figgen, M. Dolg, H. Stoll, J. Chem. Phys. 126, 124101 (2007)
                Hf-Pt : Obtained from the ccRepo (grant-hill.group.shef.ac.uk/ccrepo) Feb. 2017
                        D. Figgen, K. A. Peterson, M. Dolg, H. Stoll, J. Chem. Phys. 130, 164108 (2009)
                    U : Obtained from the ccRepo (grant-hill.group.shef.ac.uk/ccrepo) Feb. 2020
                        K. A. Peterson, J. Chem. Phys. 142, 074105 (2015)

================================================================================
                                        WARNINGS
                       Please study these warnings very carefully!
================================================================================


WARNING: Geometry Optimization
  ===> : Switching off AutoStart
         For restart on a previous wavefunction, please use MOREAD

INFO   : the flag for use of the SHARK integral package has been found!

================================================================================
                                       INPUT FILE
================================================================================
NAME = orca.inp
|  1> ! PBE0 D3BJ cc-pwCVDZ VeryTightOPT defgrid3 NOCOSX NOTRAH NORI NoSplit-RI-J
|  2> %PAL NPROCS 128  END
|  3> %basis
|  4>    NewGTO I "cc-pwCVDZ-PP" end
|  5> end
|  6> %maxcore 3450
|  7> %scf
|  8>    Convergence VeryTight
|  9>    MaxIter 3000
| 10> end
| 11> %geom
| 12>    MaxIter 3000
| 13> end
| 14> * xyzfile 0 1 geom.xyz
| 15> 
| 16> 
| 17>                          ****END OF INPUT****
================================================================================

                       *****************************
                       * Geometry Optimization Run *
                       *****************************

Geometry optimization settings:
Update method            Update   .... BFGS
Choice of coordinates    CoordSys .... Z-matrix Internals
Initial Hessian          InHess   .... Almoef's Model

Convergence Tolerances:
Energy Change            TolE     ....  2.0000e-07 Eh
Max. Gradient            TolMAXG  ....  3.0000e-05 Eh/bohr
RMS Gradient             TolRMSG  ....  8.0000e-06 Eh/bohr
Max. Displacement        TolMAXD  ....  2.0000e-04 bohr
RMS Displacement         TolRMSD  ....  1.0000e-04 bohr
Strict Convergence                ....  False
------------------------------------------------------------------------------
                        ORCA OPTIMIZATION COORDINATE SETUP
------------------------------------------------------------------------------

The optimization will be done in new redundant internal coordinates
Making redundant internal coordinates   ...  (new redundants) done
Evaluating the initial hessian          ...  (Almloef) done
Evaluating the coordinates              ...  done
Calculating the B-matrix                .... done
Calculating the G-matrix                .... done
Diagonalizing the G-matrix              .... done
The first mode is                       ....    1
The number of degrees of freedom        ....    9

    -----------------------------------------------------------------
                    Redundant Internal Coordinates


    -----------------------------------------------------------------
         Definition                    Initial Value    Approx d2E/dq
    -----------------------------------------------------------------
      1. B(C   1,I   0)                  2.1286         0.139257   
      2. B(H   2,C   1)                  1.0846         0.367292   
      3. B(H   3,C   1)                  1.0846         0.367294   
      4. B(H   4,C   1)                  1.0846         0.367293   
      5. A(I   0,C   1,H   3)          107.6747         0.294124   
      6. A(H   2,C   1,H   3)          111.2087         0.292655   
      7. A(I   0,C   1,H   4)          107.6715         0.294124   
      8. A(H   2,C   1,H   4)          111.2080         0.292655   
      9. A(H   3,C   1,H   4)          111.2089         0.292655   
     10. A(I   0,C   1,H   2)          107.6711         0.294124   
    -----------------------------------------------------------------

Number of atoms                         .... 5
Number of degrees of freedom            .... 10

         *************************************************************
         *                GEOMETRY OPTIMIZATION CYCLE   1            *
         *************************************************************
---------------------------------
CARTESIAN COORDINATES (ANGSTROEM)
---------------------------------
  I     -2.352025   -7.032019    5.687457
  C     -1.784475   -5.302563    6.791031
  H     -0.974587   -5.586355    7.454309
  H     -1.463623   -4.548898    6.080093
  H     -2.651848   -4.969908    7.350849

----------------------------
CARTESIAN COORDINATES (A.U.)
----------------------------
  NO LB      ZA    FRAG     MASS         X           Y           Z
   0 I    53.0000    0   126.900   -4.444684  -13.288590   10.747736
   1 C     6.0000    0    12.011   -3.372168  -10.020393   12.833189
   2 H     1.0000    0     1.008   -1.841702  -10.556682   14.086603
   3 H     1.0000    0     1.008   -2.765846   -8.596172   11.489711
   4 H     1.0000    0     1.008   -5.011266   -9.391765   13.891092

--------------------------------
INTERNAL COORDINATES (ANGSTROEM)
--------------------------------
 I      0   0   0     0.000000000000     0.00000000     0.00000000
 C      1   0   0     2.128616230698     0.00000000     0.00000000
 H      2   1   0     1.084616609002   107.67114319     0.00000000
 H      2   1   3     1.084615406109   107.67465792   120.00075448
 H      2   1   3     1.084616136048   107.67146957   240.00192852

---------------------------
INTERNAL COORDINATES (A.U.)
---------------------------
 I      0   0   0     0.000000000000     0.00000000     0.00000000
 C      1   0   0     4.022501720240     0.00000000     0.00000000
 H      2   1   0     2.049628351317   107.67114319     0.00000000
 H      2   1   3     2.049626078177   107.67465792   120.00075448
 H      2   1   3     2.049627457563   107.67146957   240.00192852

---------------------
BASIS SET INFORMATION
---------------------
There are 3 groups of distinct atoms

 Group   1 Type I   : 15s12p7d1f contracted to 5s4p3d1f pattern {66111/5511/511/1}
 Group   2 Type C   : 18s5p1d contracted to 4s3p1d pattern {8811/311/1}
 Group   3 Type H   : 4s1p contracted to 2s1p pattern {31/1}

Atom   0I    basis set group =>   1
Atom   1C    basis set group =>   2
Atom   2H    basis set group =>   3
Atom   3H    basis set group =>   3
Atom   4H    basis set group =>   3


           ************************************************************
           *        Program running with 128 parallel MPI-processes   *
           *              working on a common directory               *
           ************************************************************
------------------------------------------------------------------------------
                           ORCA GTO INTEGRAL CALCULATION
------------------------------------------------------------------------------
------------------------------------------------------------------------------
                   ___                                                        
                  /   \      - P O W E R E D   B Y -                         
                 /     \                                                     
                 |  |  |   _    _      __       _____    __    __             
                 |  |  |  | |  | |    /  \     |  _  \  |  |  /  |          
                  \  \/   | |  | |   /    \    | | | |  |  | /  /          
                 / \  \   | |__| |  /  /\  \   | |_| |  |  |/  /          
                |  |  |   |  __  | /  /__\  \  |    /   |      \           
                |  |  |   | |  | | |   __   |  |    \   |  |\   \          
                \     /   | |  | | |  |  |  |  | |\  \  |  | \   \       
                 \___/    |_|  |_| |__|  |__|  |_| \__\ |__|  \__/        
                                                                              
                      - O R C A' S   B I G   F R I E N D -                    
                                      &                                       
                       - I N T E G R A L  F E E D E R -                       
                                                                              
 v1 FN, 2020, v2 2021                                                         
------------------------------------------------------------------------------


Reading SHARK input file orca.SHARKINP.tmp ... ok
----------------------
SHARK INTEGRAL PACKAGE
----------------------

Number of atoms                             ...      5
Number of basis functions                   ...     91
Number of shells                            ...     43
Maximum angular momentum                    ...      3
Integral batch strategy                     ... SHARK/LIBINT Hybrid
RI-J (if used) integral strategy            ... SPLIT-RIJ (Revised 2003 algorithm where possible)
Printlevel                                  ...      1
Contraction scheme used                     ... PARTIAL GENERAL contraction
Coulomb Range Separation                    ... NOT USED
Exchange Range Separation                   ... NOT USED
Finite Nucleus Model                        ... NOT USED
Auxiliary Coulomb fitting basis             ... NOT available
Auxiliary J/K fitting basis                 ... NOT available
Auxiliary Correlation fitting basis         ... NOT available
Auxiliary 'external' fitting basis          ... NOT available
Integral threshold                          ...     1.000000e-12
Primitive cut-off                           ...     1.000000e-14
Primitive pair pre-selection threshold      ...     1.000000e-14

Calculating pre-screening integrals         ... done (  0.0 sec) Dimension = 43
Calculating pre-screening integrals (ORCA)  ... done (  0.1 sec) Dimension = 30
Organizing shell pair data                  ... done (  0.0 sec)
Shell pair information
Total number of shell pairs                 ...       946
Shell pairs after pre-screening             ...       883
Total number of primitive shell pairs       ...      1562
Primitive shell pairs kept                  ...      1387
          la=0 lb=0:    289 shell pairs
          la=1 lb=0:    300 shell pairs
          la=1 lb=1:     89 shell pairs
          la=2 lb=0:    100 shell pairs
          la=2 lb=1:     52 shell pairs
          la=2 lb=2:     10 shell pairs
          la=3 lb=0:     25 shell pairs
          la=3 lb=1:     13 shell pairs
          la=3 lb=2:      4 shell pairs
          la=3 lb=3:      1 shell pairs

Calculating one electron integrals          ... done (  0.0 sec)
Calculating Nuclear repulsion               ... done (  0.0 sec) ENN=    120.280834620885 Eh

SHARK setup successfully completed in   0.2 seconds

Maximum memory used throughout the entire GTOINT-calculation: 16.6 MB


           ************************************************************
           *        Program running with 128 parallel MPI-processes   *
           *              working on a common directory               *
           ************************************************************
-------------------------------------------------------------------------------
                                 ORCA SCF
-------------------------------------------------------------------------------

------------
SCF SETTINGS
------------
Hamiltonian:
 Density Functional     Method          .... DFT(GTOs)
 Exchange Functional    Exchange        .... PBE
   PBE kappa parameter   XKappa         ....  0.804000
   PBE mue parameter    XMuePBE         ....  0.219520
 Correlation Functional Correlation     .... PBE
   PBE beta parameter  CBetaPBE         ....  0.066725
 LDA part of GGA corr.  LDAOpt          .... PW91-LDA
 Gradients option       PostSCFGGA      .... off
 Hybrid DFT is turned on
   Fraction HF Exchange ScalHFX         ....  0.250000
   Scaling of DF-GGA-X  ScalDFX         ....  0.750000
   Scaling of DF-GGA-C  ScalDFC         ....  1.000000
   Scaling of DF-LDA-C  ScalLDAC        ....  1.000000
   Perturbative correction              ....  0.000000
   Density functional embedding theory  .... OFF
   NL short-range parameter             ....  6.900000


General Settings:
 Integral files         IntName         .... orca
 Hartree-Fock type      HFTyp           .... RHF
 Total Charge           Charge          ....    0
 Multiplicity           Mult            ....    1
 Number of Electrons    NEL             ....   62
 Basis Dimension        Dim             ....   72
 Nuclear Repulsion      ENuc            ....    120.2808346209 Eh

Convergence Acceleration:
 DIIS                   CNVDIIS         .... on
   Start iteration      DIISMaxIt       ....    12
   Startup error        DIISStart       ....  0.200000
   # of expansion vecs  DIISMaxEq       ....     5
   Bias factor          DIISBfac        ....   1.050
   Max. coefficient     DIISMaxC        ....  10.000
 Trust-Rad. Augm. Hess. CNVTRAH         .... off
 SOSCF                  CNVSOSCF        .... on
   Start iteration      SOSCFMaxIt      ....   150
   Startup grad/error   SOSCFStart      ....  0.003300
 Level Shifting         CNVShift        .... on
   Level shift para.    LevelShift      ....    0.2500
   Turn off err/grad.   ShiftErr        ....    0.0010
 Zerner damping         CNVZerner       .... off
 Static damping         CNVDamp         .... on
   Fraction old density DampFac         ....    0.7000
   Max. Damping (<1)    DampMax         ....    0.9800
   Min. Damping (>=0)   DampMin         ....    0.0000
   Turn off err/grad.   DampErr         ....    0.1000
 Fernandez-Rico         CNVRico         .... off

SCF Procedure:
 Maximum # iterations   MaxIter         ....  3000
 SCF integral mode      SCFMode         .... Direct
   Integral package                     .... SHARK and LIBINT hybrid scheme
 Reset frequency        DirectResetFreq ....    20
 Integral Threshold     Thresh          ....  1.000e-12 Eh
 Primitive CutOff       TCut            ....  1.000e-14 Eh

Convergence Tolerance:
 Convergence Check Mode ConvCheckMode   .... Total+1el-Energy
 Convergence forced     ConvForced      .... 0
 Energy Change          TolE            ....  1.000e-09 Eh
 1-El. energy change                    ....  1.000e-06 Eh
 Orbital Gradient       TolG            ....  2.000e-06
 Orbital Rotation angle TolX            ....  2.000e-06
 DIIS Error             TolErr          ....  1.000e-08


Diagonalization of the overlap matrix:
Smallest eigenvalue                        ... 2.712e-03
Time for diagonalization                   ...    0.001 sec
Threshold for overlap eigenvalues          ... 1.000e-08
Number of eigenvalues below threshold      ... 0
Time for construction of square roots      ...    0.003 sec
Total time needed                          ...    0.005 sec

Time for model grid setup =    0.051 sec

------------------------------
INITIAL GUESS: MODEL POTENTIAL
------------------------------
Loading Hartree-Fock densities                     ... done
Calculating cut-offs                               ... done
Initializing the effective Hamiltonian             ... done
Setting up the integral package (SHARK)            ... done
Starting the Coulomb interaction                   ... done (   0.0 sec)
Reading the grid                                   ... done
Mapping shells                                     ... done
Starting the XC term evaluation                    ... done (   0.0 sec)
  promolecular density results
     # of electrons  =     61.998323315
     EX              =   -179.112781404
     EC              =     -3.140355500
     EX+EC           =   -182.253136904
Transforming the Hamiltonian                       ... done (   0.0 sec)
Diagonalizing the Hamiltonian                      ... done (   0.0 sec)
Back transforming the eigenvectors                 ... done (   0.0 sec)
Now organizing SCF variables                       ... done
                      ------------------
                      INITIAL GUESS DONE (   0.1 sec)
                      ------------------
-------------------
DFT GRID GENERATION
-------------------

General Integration Accuracy     IntAcc      ... 4.959
Radial Grid Type                 RadialGrid  ... OptM3 with GC (2021)
Angular Grid (max. ang.)         AngularGrid ... 6 (Lebedev-590)
Angular grid pruning method      GridPruning ... 4 (adaptive)
Weight generation scheme         WeightScheme... Becke
Basis function cutoff            BFCut       ... 1.0000e-12
Integration weight cutoff        WCut        ... 1.0000e-14
Angular grids for H and He will be reduced by one unit
Partially contracted basis set               ... off
Rotationally invariant grid construction     ... off

Total number of grid points                  ...    66280
Total number of batches                      ...     1038
Average number of points per batch           ...       63
Average number of grid points per atom       ...    13256
Time for grid setup =    0.844 sec

--------------
SCF ITERATIONS
--------------
ITER       Energy         Delta-E        Max-DP      RMS-DP      [F,P]     Damp
               ***  Starting incremental Fock matrix formation  ***
  0  -1746.4707832260   0.00000000000083.57898814  1.77147461  3.3147757 0.7000
  1  -1818.0071325831 -71.53634935710657.78661638  1.22184514  1.9794848 0.7000
  2  -1851.1573308821 -33.15019829906137.84664252  0.78406412  1.3154332 0.7000
  3  -1866.7505347814 -15.593203899248 4.92379153  0.16081268  0.8787460 0.7000
  4  -1876.4771297093  -9.726594927889 2.01213383  0.11283186  0.5922610 0.7000
  5  -1882.4364016520  -5.959271942762 1.72400050  0.09195965  0.4000444 0.7000
  6  -1886.2835172351  -3.847115583056 1.51365662  0.07615123  0.2706288 0.7000
  7  -1888.8589812771  -2.575464042049 1.30946046  0.06418745  0.2308050 0.7000
                               ***Turning on DIIS***
  8  -1890.6205430374  -1.761561760245 1.34055246  0.05394903  0.1904969 0.7000
  9  -1891.8403966972  -1.219853659821 1.72857047  0.05293479  0.1520056 0.7000
 10  -1892.6909166417  -0.850519944505 1.30940595  0.03948258  0.1072136 0.7000
 11  -1893.2857025934  -0.594785951701 2.78492958  0.08757214  0.0726923 0.0000
                      *** Initiating the SOSCF procedure ***
                           *** Shutting down DIIS ***
                      *** Re-Reading the Fockian *** 
                      *** Removing any level shift *** 
ITER      Energy       Delta-E        Grad      Rot      Max-DP    RMS-DP
 12  -1894.67632792  -1.3906253315  0.002242  0.002242  0.105479  0.002447
               *** Restarting incremental Fock matrix formation ***
 13  -1894.67636547  -0.0000375401  0.000834  0.004016  0.050570  0.001226
 14  -1894.67636714  -0.0000016713  0.000889  0.001541  0.058816  0.001211
 15  -1894.67637447  -0.0000073371  0.000273  0.000222  0.028298  0.000599
 16  -1894.67637518  -0.0000007045  0.000131  0.000076  0.006918  0.000153
 17  -1894.67637534  -0.0000001587  0.000010  0.000010  0.000221  0.000005
 18  -1894.67637534  -0.0000000009  0.000002  0.000004  0.000068  0.000002
                  ***Gradient check signals convergence***
              ***Rediagonalizing the Fockian in SOSCF/NRSCF***

               *****************************************************
               *                     SUCCESS                       *
               *           SCF CONVERGED AFTER  19 CYCLES          *
               *****************************************************


----------------
TOTAL SCF ENERGY
----------------

Total Energy       :        -1894.67637534 Eh          -51556.76527 eV

Components:
Nuclear Repulsion  :          120.28083462 Eh            3273.00791 eV
Electronic Energy  :        -2014.95720996 Eh          -54829.77317 eV
One Electron Energy:        -3255.15304681 Eh          -88577.21758 eV
Two Electron Energy:         1240.19583685 Eh           33747.44441 eV

Virial components:
Potential Energy   :        -2320.23250680 Eh          -63136.73632 eV
Kinetic Energy     :          425.55613146 Eh           11579.97105 eV
Virial Ratio       :            5.45223611


DFT components:
N(Alpha)           :       31.000001156957 electrons
N(Beta)            :       31.000001156957 electrons
N(Total)           :       62.000002313913 electrons
E(X)               :      -47.978607444397 Eh       
E(C)               :       -3.498210798069 Eh       
E(XC)              :      -51.476818242467 Eh       
DFET-embed. en.    :        0.000000000000 Eh       

---------------
SCF CONVERGENCE
---------------

  Last Energy change         ...   -9.7089e-11  Tolerance :   1.0000e-09
  Last MAX-Density change    ...    5.5319e-06  Tolerance :   1.0000e-08
  Last RMS-Density change    ...    1.3645e-07  Tolerance :   1.0000e-09
  Last Orbital Gradient      ...    2.9323e-07  Tolerance :   2.0000e-06
  Last Orbital Rotation      ...    3.4487e-07  Tolerance :   2.0000e-06

             **** THE GBW FILE WAS UPDATED (orca.gbw) ****
             **** DENSITY orca.scfp WAS UPDATED ****
             **** ENERGY FILE WAS UPDATED (orca.en.tmp) ****
             **** THE GBW FILE WAS UPDATED (orca.gbw) ****
             **** DENSITY orca.scfp WAS UPDATED ****
----------------
ORBITAL ENERGIES
----------------

  NO   OCC          E(Eh)            E(eV) 
   0   2.0000    -144.051007     -3919.8272 
   1   2.0000     -26.303571      -715.7566 
   2   2.0000     -22.655206      -616.4795 
   3   2.0000     -22.652388      -616.4028 
   4   2.0000     -22.652388      -616.4028 
   5   2.0000     -18.859617      -513.1963 
   6   2.0000     -18.778421      -510.9868 
   7   2.0000     -18.778419      -510.9868 
   8   2.0000     -18.746547      -510.1195 
   9   2.0000     -18.746547      -510.1195 
  10   2.0000     -10.176765      -276.9239 
  11   2.0000      -4.101609      -111.6104 
  12   2.0000      -2.077536       -56.5326 
  13   2.0000      -2.075806       -56.4855 
  14   2.0000      -2.075806       -56.4855 
  15   2.0000      -2.073555       -56.4243 
  16   2.0000      -2.073554       -56.4243 
  17   2.0000      -2.071366       -56.3647 
  18   2.0000      -2.071366       -56.3647 
  19   2.0000      -1.476068       -40.1658 
  20   2.0000      -1.465172       -39.8693 
  21   2.0000      -1.465172       -39.8693 
  22   2.0000      -0.655067       -17.8253 
  23   2.0000      -0.531045       -14.4505 
  24   2.0000      -0.520288       -14.1577 
  25   2.0000      -0.520287       -14.1577 
  26   2.0000      -0.507873       -13.8199 
  27   2.0000      -0.507873       -13.8199 
  28   2.0000      -0.361922        -9.8484 
  29   2.0000      -0.361920        -9.8483 
  30   2.0000      -0.178238        -4.8501 
  31   0.0000       0.029001         0.7892 
  32   0.0000       0.125150         3.4055 
  33   0.0000       0.143617         3.9080 
  34   0.0000       0.143617         3.9080 
  35   0.0000       0.187718         5.1081 
  36   0.0000       0.187718         5.1081 
  37   0.0000       0.258611         7.0372 
  38   0.0000       0.506216        13.7748 
  39   0.0000       0.509031        13.8514 
  40   0.0000       0.509036        13.8516 
  41   0.0000       0.695025        18.9126 
  42   0.0000       0.712937        19.4000 
  43   0.0000       0.712939        19.4001 
  44   0.0000       0.761302        20.7161 
  45   0.0000       0.790446        21.5091 
  46   0.0000       0.790447        21.5092 
  47   0.0000       0.839573        22.8459 
  48   0.0000       0.877383        23.8748 
  49   0.0000       0.877388        23.8749 
  50   0.0000       0.953972        25.9589 
  51   0.0000       0.953973        25.9589 
  52   0.0000       1.048434        28.5294 
  53   0.0000       1.215536        33.0764 
  54   0.0000       1.215548        33.0767 
  55   0.0000       1.340305        36.4715 
  56   0.0000       1.458346        39.6836 
  57   0.0000       1.648236        44.8508 
  58   0.0000       1.669586        45.4317 
  59   0.0000       1.669587        45.4318 
  60   0.0000       1.795899        48.8689 
  61   0.0000       1.795909        48.8692 
  62   0.0000       1.948104        53.0106 
  63   0.0000       2.207374        60.0657 
  64   0.0000       2.207378        60.0658 
  65   0.0000       2.493590        67.8540 
  66   0.0000       2.527782        68.7844 
  67   0.0000       2.527784        68.7845 
  68   0.0000      10.207325       277.7554 
  69   0.0000      11.096179       301.9424 
  70   0.0000      11.096190       301.9427 
  71   0.0000      13.158618       358.0642 

                    ********************************
                    * MULLIKEN POPULATION ANALYSIS *
                    ********************************

-----------------------
MULLIKEN ATOMIC CHARGES
-----------------------
   0 I :    0.470175
   1 C :   -0.557240
   2 H :    0.029021
   3 H :    0.029024
   4 H :    0.029020
Sum of atomic charges:    0.0000000

--------------------------------
MULLIKEN REDUCED ORBITAL CHARGES
--------------------------------
  0 I s       :     6.759796  s :     6.759796
      pz      :     3.994200  p :    11.974466
      px      :     4.002502
      py      :     3.977764
      dz2     :     3.982454  d :    19.799823
      dxz     :     3.986813
      dyz     :     3.914342
      dx2y2   :     3.950881
      dxy     :     3.965334
      f0      :     1.999445  f :    13.995740
      f+1     :     1.999921
      f-1     :     1.999362
      f+2     :     1.998922
      f-2     :     1.999261
      f+3     :     1.999365
      f-3     :     1.999465
  1 C s       :     3.189162  s :     3.189162
      pz      :     1.085741  p :     3.317753
      px      :     1.023879
      py      :     1.208133
      dz2     :     0.003870  d :     0.050325
      dxz     :     0.009619
      dyz     :     0.017304
      dx2y2   :     0.010863
      dxy     :     0.008668
  2 H s       :     0.938192  s :     0.938192
      pz      :     0.011311  p :     0.032787
      px      :     0.013145
      py      :     0.008332
  3 H s       :     0.938189  s :     0.938189
      pz      :     0.011943  p :     0.032787
      px      :     0.007431
      py      :     0.013413
  4 H s       :     0.938192  s :     0.938192
      pz      :     0.010002  p :     0.032787
      px      :     0.014113
      py      :     0.008673


                     *******************************
                     * LOEWDIN POPULATION ANALYSIS *
                     *******************************

----------------------
LOEWDIN ATOMIC CHARGES
----------------------
   0 I :    0.338036
   1 C :   -0.356380
   2 H :    0.006115
   3 H :    0.006115
   4 H :    0.006114

-------------------------------
LOEWDIN REDUCED ORBITAL CHARGES
-------------------------------
  0 I s       :     6.689787  s :     6.689787
      pz      :     4.012875  p :    12.041106
      px      :     4.010343
      py      :     4.017888
      dz2     :     3.993354  d :    19.934740
      dxz     :     3.995755
      dyz     :     3.973170
      dx2y2   :     3.984116
      dxy     :     3.988345
      f0      :     1.999545  f :    13.996331
      f+1     :     1.999926
      f-1     :     1.999414
      f+2     :     1.999097
      f-2     :     1.999361
      f+3     :     1.999455
      f-3     :     1.999532
  1 C s       :     2.897165  s :     2.897165
      pz      :     1.109544  p :     3.361781
      px      :     1.075662
      py      :     1.176575
      dz2     :     0.003158  d :     0.097434
      dxz     :     0.033794
      dyz     :     0.027589
      dx2y2   :     0.018131
      dxy     :     0.014762
  2 H s       :     0.903952  s :     0.903952
      pz      :     0.029505  p :     0.089933
      px      :     0.032945
      py      :     0.027482
  3 H s       :     0.903952  s :     0.903952
      pz      :     0.033796  p :     0.089933
      px      :     0.019805
      py      :     0.036332
  4 H s       :     0.903952  s :     0.903952
      pz      :     0.026588  p :     0.089933
      px      :     0.037002
      py      :     0.026344


                      *****************************
                      * MAYER POPULATION ANALYSIS *
                      *****************************

  NA   - Mulliken gross atomic population
  ZA   - Total nuclear charge
  QA   - Mulliken gross atomic charge
  VA   - Mayer's total valence
  BVA  - Mayer's bonded valence
  FA   - Mayer's free valence

  ATOM       NA         ZA         QA         VA         BVA        FA
  0 I     52.5298    53.0000     0.4702     0.9721     0.9721     0.0000
  1 C      6.5572     6.0000    -0.5572     3.8982     3.8982     0.0000
  2 H      0.9710     1.0000     0.0290     0.9905     0.9905    -0.0000
  3 H      0.9710     1.0000     0.0290     0.9905     0.9905     0.0000
  4 H      0.9710     1.0000     0.0290     0.9905     0.9905    -0.0000

  Mayer bond orders larger than 0.100000
B(  0-I ,  1-C ) :   0.9238 B(  1-C ,  2-H ) :   0.9915 B(  1-C ,  3-H ) :   0.9915 
B(  1-C ,  4-H ) :   0.9915 

-------
TIMINGS
-------

Total SCF time: 0 days 0 hours 0 min 2 sec 

Total time                  ....       2.689 sec
Sum of individual times     ....       2.401 sec  ( 89.3%)

Fock matrix formation       ....       1.119 sec  ( 41.6%)
  XC integration            ....       0.204 sec  ( 18.2% of F)
    Basis function eval.    ....       0.018 sec  (  8.9% of XC)
    Density eval.           ....       0.012 sec  (  5.7% of XC)
    XC-Functional eval.     ....       0.007 sec  (  3.4% of XC)
    XC-Potential eval.      ....       0.010 sec  (  4.8% of XC)
Diagonalization             ....       0.128 sec  (  4.8%)
Density matrix formation    ....       0.015 sec  (  0.5%)
Population analysis         ....       0.011 sec  (  0.4%)
Initial guess               ....       0.021 sec  (  0.8%)
Orbital Transformation      ....       0.000 sec  (  0.0%)
Orbital Orthonormalization  ....       0.000 sec  (  0.0%)
DIIS solution               ....       0.138 sec  (  5.1%)
SOSCF solution              ....       0.074 sec  (  2.7%)
Grid generation             ....       0.895 sec  ( 33.3%)

Maximum memory used throughout the entire SCF-calculation: 230.4 MB


-------------------------------------------------------------------------------
                          DFT DISPERSION CORRECTION                            
                                                                               
                              DFTD3 V3.1  Rev 1                                
                          USING Becke-Johnson damping                          
-------------------------------------------------------------------------------
The PBE0 functional is recognized
Active option DFTDOPT                   ...         4   

molecular C6(AA) [au] = 807.031153 


            DFT-D V3
 parameters
 s6 scaling factor         :     1.0000 
 a1 scaling factor         :     0.4145 
 s8 scaling factor         :     1.2177 
 a2 scaling factor         :     4.8593 
 ad hoc parameters k1-k3   :    16.0000     1.3333    -4.0000 

 Edisp/kcal,au: -1.499740107600  -0.002389987737 
 E6   /kcal   :  -0.849154466 
 E8   /kcal   :  -0.650585641 
 % E8         :  43.379892163 

-------------------------   ----------------
Dispersion correction           -0.002389988
-------------------------   ----------------


-------------------------   --------------------
FINAL SINGLE POINT ENERGY     -1894.678765325345
-------------------------   --------------------



           ************************************************************
           *        Program running with 128 parallel MPI-processes   *
           *              working on a common directory               *
           ************************************************************
------------------------------------------------------------------------------
                         ORCA SCF GRADIENT CALCULATION
------------------------------------------------------------------------------

Gradient of the Kohn-Sham DFT energy:
Kohn-Sham wavefunction type      ... RKS
Hartree-Fock exchange scaling    ...    0.250
Number of operators              ...    1
Number of atoms                  ...    5
Basis set dimensions             ...   72
Integral neglect threshold       ... 1.0e-12
Integral primitive cutoff        ... 1.0e-14
SHARK Integral package           ... ON

Nuc. rep. gradient       (SHARK) ... done (  0.0 sec)
HCore & Overlap gradient (SHARK) ... done (  0.0 sec)
Two-Electron gradient    (SHARK) ... done (  0.4 sec)
Exchange-correlation gradient    ... done
Dispersion correction            ... done

------------------
CARTESIAN GRADIENT
------------------

   1   I   :   -0.097526284   -0.297177156   -0.189676239
   2   C   :    0.077085134    0.234888505    0.149932917
   3   H   :    0.001003673    0.025203026    0.009285391
   4   H   :    0.004935935    0.016844271    0.020340449
   5   H   :    0.014501543    0.020241354    0.010117482

Difference to translation invariance:
           :   -0.0000000000   -0.0000000002    0.0000000000

Difference to rotation invariance:
           :    0.0001267945   -0.0000365637   -0.0000078607

Norm of the cartesian gradient     ...    0.4685765003
RMS gradient                       ...    0.1209859321
MAX gradient                       ...    0.2971771559

-------
TIMINGS
-------

Total SCF gradient time            ...        0.510 sec

One electron gradient       ....       0.006 sec  (  1.1%)
Two electron gradient       ....       0.374 sec  ( 73.3%)
XC gradient                 ....       0.019 sec  (  3.7%)

Maximum memory used throughout the entire SCFGRAD-calculation: 25.4 MB
------------------------------------------------------------------------------
                         ORCA GEOMETRY RELAXATION STEP
------------------------------------------------------------------------------

Reading the OPT-File                    .... done
Getting information on internals        .... done
Copying old internal coords+grads       .... done
Making the new internal coordinates     .... (new redundants).... done
Validating the new internal coordinates .... (new redundants).... done
Calculating the B-matrix                .... done
Calculating the G,G- and P matrices     .... done
Transforming gradient to internals      .... done
Projecting the internal gradient        .... done
Number of atoms                         ....   5
Number of internal coordinates          ....  10
Current Energy                          .... -1894.678765325 Eh
Current gradient norm                   ....     0.468576500 Eh/bohr
Maximum allowed component of the step   ....  0.300
Current trust radius                    ....  0.300
Evaluating the initial hessian          ....  (Almloef) done
Projecting the Hessian                  .... done
Forming the augmented Hessian           .... done
Diagonalizing the augmented Hessian     .... done
Last element of RFO vector              ....  0.770672823
Lowest eigenvalues of augmented Hessian:
 -0.307566956  0.285678344  0.292654603  0.292654722  0.294123904
Length of the computed step             ....  0.826850281
Warning: the length of the step is outside the trust region - taking restricted step instead
The input lambda is                     ....    -0.307567
   iter:   1  x=   -0.502557  g=    3.044678 f(x)=     0.593681
   iter:   2  x=   -0.737661  g=    1.031541 f(x)=     0.242520
   iter:   3  x=   -0.955993  g=    0.405739 f(x)=     0.088586
   iter:   4  x=   -1.074191  g=    0.208684 f(x)=     0.024666
   iter:   5  x=   -1.096834  g=    0.153585 f(x)=     0.003478
   iter:   6  x=   -1.097486  g=    0.145321 f(x)=     0.000095
   iter:   7  x=   -1.097487  g=    0.145092 f(x)=     0.000000
   iter:   8  x=   -1.097487  g=    0.145092 f(x)=     0.000000
   iter:   9  x=   -1.097487  g=    0.145092 f(x)=    -0.000000
The output lambda is                    ....    -1.097487 (9 iterations)
The final length of the internal step   ....  0.300000000
Converting the step to cartesian space:
 Initial RMS(Int)=    0.0948683298
Transforming coordinates:
 Iter   0:  RMS(Cart)=    0.0762740992 RMS(Int)=    0.0948360238
 Iter   1:  RMS(Cart)=    0.0002230206 RMS(Int)=    0.0003154557
 Iter   2:  RMS(Cart)=    0.0000049135 RMS(Int)=    0.0000065631
 Iter   3:  RMS(Cart)=    0.0000000654 RMS(Int)=    0.0000000716
done
Storing new coordinates                 .... done

                                .--------------------.
          ----------------------|Geometry convergence|-------------------------
          Item                value                   Tolerance       Converged
          ---------------------------------------------------------------------
          RMS gradient        0.1177622244            0.0000080000      NO
          MAX gradient        0.3657905307            0.0000300000      NO
          RMS step            0.0948683298            0.0001000000      NO
          MAX step            0.2957690494            0.0002000000      NO
          ........................................................
          Max(Bonds)      0.1565      Max(Angles)    1.22
          Max(Dihed)        0.00      Max(Improp)    0.00
          ---------------------------------------------------------------------

The optimization has not yet converged - more geometry cycles are needed


    ---------------------------------------------------------------------------
                         Redundant Internal Coordinates
                            (Angstroem and degrees)

        Definition                    Value    dE/dq     Step     New-Value
    ----------------------------------------------------------------------------
     1. B(C   1,I   0)                2.1286  0.365791 -0.1565    1.9721   
     2. B(H   2,C   1)                1.0846 -0.000168  0.0001    1.0847   
     3. B(H   3,C   1)                1.0846 -0.000166  0.0001    1.0847   
     4. B(H   4,C   1)                1.0846 -0.000168  0.0001    1.0847   
     5. A(I   0,C   1,H   3)          107.67  0.029466   -1.21    106.46   
     6. A(H   2,C   1,H   3)          111.21 -0.027474    1.13    112.34   
     7. A(I   0,C   1,H   4)          107.67  0.029531   -1.22    106.46   
     8. A(H   2,C   1,H   4)          111.21 -0.027459    1.13    112.34   
     9. A(H   3,C   1,H   4)          111.21 -0.027476    1.13    112.34   
    10. A(I   0,C   1,H   2)          107.67  0.029540   -1.22    106.45   
    ----------------------------------------------------------------------------

         *************************************************************
         *                GEOMETRY OPTIMIZATION CYCLE   2            *
         *************************************************************
---------------------------------
CARTESIAN COORDINATES (ANGSTROEM)
---------------------------------
  I     -2.315081   -6.919443    5.759310
  C     -1.789258   -5.317139    6.781719
  H     -0.980496   -5.622709    7.436742
  H     -1.472782   -4.578304    6.053374
  H     -2.668940   -5.002148    7.332595

----------------------------
CARTESIAN COORDINATES (A.U.)
----------------------------
  NO LB      ZA    FRAG     MASS         X           Y           Z
   0 I    53.0000    0   126.900   -4.374869  -13.075853   10.883519
   1 C     6.0000    0    12.011   -3.381208  -10.047937   12.815591
   2 H     1.0000    0     1.008   -1.852869  -10.625380   14.053406
   3 H     1.0000    0     1.008   -2.783154   -8.651741   11.439220
   4 H     1.0000    0     1.008   -5.043565   -9.452690   13.856596

--------------------------------
INTERNAL COORDINATES (ANGSTROEM)
--------------------------------
 I      0   0   0     0.000000000000     0.00000000     0.00000000
 C      1   0   0     1.972101990859     0.00000000     0.00000000
 H      2   1   0     1.084677359449   106.43897413     0.00000000
 H      2   1   3     1.084675199019   106.44553102   120.00130581
 H      2   1   3     1.084676724422   106.43968337   240.00331886

---------------------------
INTERNAL COORDINATES (A.U.)
---------------------------
 I      0   0   0     0.000000000000     0.00000000     0.00000000
 C      1   0   0     3.726732670884     0.00000000     0.00000000
 H      2   1   0     2.049743153024   106.43897413     0.00000000
 H      2   1   3     2.049739070403   106.44553102   120.00130581
 H      2   1   3     2.049741952997   106.43968337   240.00331886



           ************************************************************
           *        Program running with 128 parallel MPI-processes   *
           *              working on a common directory               *
           ************************************************************
------------------------------------------------------------------------------
                   ___                                                        
                  /   \      - P O W E R E D   B Y -                         
                 /     \                                                     
                 |  |  |   _    _      __       _____    __    __             
                 |  |  |  | |  | |    /  \     |  _  \  |  |  /  |          
                  \  \/   | |  | |   /    \    | | | |  |  | /  /          
                 / \  \   | |__| |  /  /\  \   | |_| |  |  |/  /          
                |  |  |   |  __  | /  /__\  \  |    /   |      \           
                |  |  |   | |  | | |   __   |  |    \   |  |\   \          
                \     /   | |  | | |  |  |  |  | |\  \  |  | \   \       
                 \___/    |_|  |_| |__|  |__|  |_| \__\ |__|  \__/        
                                                                              
                      - O R C A' S   B I G   F R I E N D -                    
                                      &                                       
                       - I N T E G R A L  F E E D E R -                       
                                                                              
 v1 FN, 2020, v2 2021                                                         
------------------------------------------------------------------------------


Reading SHARK input file orca.SHARKINP.tmp ... ok
----------------------
SHARK INTEGRAL PACKAGE
----------------------

Number of atoms                             ...      5
Number of basis functions                   ...     91
Number of shells                            ...     43
Maximum angular momentum                    ...      3
Integral batch strategy                     ... SHARK/LIBINT Hybrid
RI-J (if used) integral strategy            ... SPLIT-RIJ (Revised 2003 algorithm where possible)
Printlevel                                  ...      1
Contraction scheme used                     ... PARTIAL GENERAL contraction
Coulomb Range Separation                    ... NOT USED
Exchange Range Separation                   ... NOT USED
Finite Nucleus Model                        ... NOT USED
Auxiliary Coulomb fitting basis             ... NOT available
Auxiliary J/K fitting basis                 ... NOT available
Auxiliary Correlation fitting basis         ... NOT available
Auxiliary 'external' fitting basis          ... NOT available
Integral threshold                          ...     1.000000e-12
Primitive cut-off                           ...     1.000000e-14
Primitive pair pre-selection threshold      ...     1.000000e-14

Calculating pre-screening integrals         ... done (  0.0 sec) Dimension = 43
Calculating pre-screening integrals (ORCA)  ... done (  0.1 sec) Dimension = 30
Organizing shell pair data                  ... done (  0.0 sec)
Shell pair information
Total number of shell pairs                 ...       946
Shell pairs after pre-screening             ...       890
Total number of primitive shell pairs       ...      1562
Primitive shell pairs kept                  ...      1398
          la=0 lb=0:    294 shell pairs
          la=1 lb=0:    302 shell pairs
          la=1 lb=1:     89 shell pairs
          la=2 lb=0:    100 shell pairs
          la=2 lb=1:     52 shell pairs
          la=2 lb=2:     10 shell pairs
          la=3 lb=0:     25 shell pairs
          la=3 lb=1:     13 shell pairs
          la=3 lb=2:      4 shell pairs
          la=3 lb=3:      1 shell pairs

Calculating one electron integrals          ... done (  0.0 sec)
Calculating Nuclear repulsion               ... done (  0.0 sec) ENN=    128.576391743291 Eh

SHARK setup successfully completed in   0.2 seconds

Maximum memory used throughout the entire GTOINT-calculation: 16.6 MB


           ************************************************************
           *        Program running with 128 parallel MPI-processes   *
           *              working on a common directory               *
           ************************************************************

Diagonalization of the overlap matrix:
Smallest eigenvalue                        ... 2.684e-03
Time for diagonalization                   ...    0.001 sec
Threshold for overlap eigenvalues          ... 1.000e-08
Number of eigenvalues below threshold      ... 0
Time for construction of square roots      ...    0.003 sec
Total time needed                          ...    0.006 sec

-------------------
DFT GRID GENERATION
-------------------

General Integration Accuracy     IntAcc      ... 4.959
Radial Grid Type                 RadialGrid  ... OptM3 with GC (2021)
Angular Grid (max. ang.)         AngularGrid ... 6 (Lebedev-590)
Angular grid pruning method      GridPruning ... 4 (adaptive)
Weight generation scheme         WeightScheme... Becke
Basis function cutoff            BFCut       ... 1.0000e-12
Integration weight cutoff        WCut        ... 1.0000e-14
Angular grids for H and He will be reduced by one unit
Partially contracted basis set               ... off
Rotationally invariant grid construction     ... off

Total number of grid points                  ...    66222
Total number of batches                      ...     1037
Average number of points per batch           ...       63
Average number of grid points per atom       ...    13244
Time for grid setup =    0.844 sec

--------------
SCF ITERATIONS
--------------
ITER       Energy         Delta-E        Max-DP      RMS-DP      [F,P]     Damp
               ***  Starting incremental Fock matrix formation  ***
  0  -1894.7104381871   0.000000000000 0.57224758  0.01686618  0.3495414 0.7000
  1  -1894.7376423826  -0.027204195494 0.50039221  0.01393869  0.2457636 0.7000
                               ***Turning on DIIS***
  2  -1894.7568801636  -0.019237781087 0.41313402  0.01093015  0.1721225 0.7000
  3  -1894.7704183235  -0.013538159843 0.34240266  0.00870493  0.1206023 0.7000
  4  -1894.7799326952  -0.009514371743 0.85332488  0.02153234  0.0844622 0.0000
                      *** Initiating the SOSCF procedure ***
                           *** Shutting down DIIS ***
                      *** Re-Reading the Fockian *** 
                      *** Removing any level shift *** 
ITER      Energy       Delta-E        Grad      Rot      Max-DP    RMS-DP
  5  -1894.80225747  -0.0223247766  0.000523  0.000523  0.033260  0.000896
               *** Restarting incremental Fock matrix formation ***
  6  -1894.80226227  -0.0000047998  0.000080  0.000246  0.007050  0.000178
  7  -1894.80226239  -0.0000001201  0.000025  0.000057  0.001909  0.000046
  8  -1894.80226239  -0.0000000018  0.000024  0.000042  0.001440  0.000031
  9  -1894.80226240  -0.0000000071  0.000006  0.000019  0.000141  0.000005
 10  -1894.80226240  -0.0000000005  0.000002  0.000004  0.000059  0.000002
                  ***Gradient check signals convergence***
              ***Rediagonalizing the Fockian in SOSCF/NRSCF***

               *****************************************************
               *                     SUCCESS                       *
               *           SCF CONVERGED AFTER  11 CYCLES          *
               *****************************************************

Total Energy       :        -1894.80226240 Eh          -51560.19083 eV
  Last Energy change         ...   -6.7303e-11  Tolerance :   1.0000e-09
  Last MAX-Density change    ...    2.2473e-05  Tolerance :   1.0000e-08
             **** THE GBW FILE WAS UPDATED (orca.gbw) ****
             **** DENSITY orca.scfp WAS UPDATED ****
             **** ENERGY FILE WAS UPDATED (orca.en.tmp) ****
             **** THE GBW FILE WAS UPDATED (orca.gbw) ****
             **** DENSITY orca.scfp WAS UPDATED ****
Total SCF time: 0 days 0 hours 0 min 1 sec 

Maximum memory used throughout the entire SCF-calculation: 230.4 MB


-------------------------------------------------------------------------------
                          DFT DISPERSION CORRECTION                            
                                                                               
                              DFTD3 V3.1  Rev 1                                
                          USING Becke-Johnson damping                          
-------------------------------------------------------------------------------
-------------------------   ----------------
Dispersion correction           -0.002417700
-------------------------   ----------------


-------------------------   --------------------
FINAL SINGLE POINT ENERGY     -1894.804680100941
-------------------------   --------------------



           ************************************************************
           *        Program running with 128 parallel MPI-processes   *
           *              working on a common directory               *
           ************************************************************
------------------------------------------------------------------------------
                         ORCA SCF GRADIENT CALCULATION
------------------------------------------------------------------------------

Gradient of the Kohn-Sham DFT energy:
Kohn-Sham wavefunction type      ... RKS
Hartree-Fock exchange scaling    ...    0.250
Number of operators              ...    1
Number of atoms                  ...    5
Basis set dimensions             ...   72
Integral neglect threshold       ... 1.0e-12
Integral primitive cutoff        ... 1.0e-14
SHARK Integral package           ... ON

Nuc. rep. gradient       (SHARK) ... done (  0.0 sec)
HCore & Overlap gradient (SHARK) ... done (  0.0 sec)
Two-Electron gradient    (SHARK) ... done (  0.4 sec)
Exchange-correlation gradient    ... done
Dispersion correction            ... done

------------------
CARTESIAN GRADIENT
------------------

   1   I   :   -0.123757228   -0.377138454   -0.240696619
   2   C   :    0.088399380    0.269394526    0.171957868
   3   H   :    0.003872665    0.041970017    0.017517092
   4   H   :    0.009223717    0.030565490    0.032572850
   5   H   :    0.022261466    0.035208421    0.018648810

Difference to translation invariance:
           :   -0.0000000001    0.0000000001    0.0000000005

Difference to rotation invariance:
           :    0.0000804640   -0.0000415971    0.0000234012

Norm of the cartesian gradient     ...    0.5759237150
RMS gradient                       ...    0.1487028638
MAX gradient                       ...    0.3771384542

-------
TIMINGS
-------

Total SCF gradient time            ...        0.519 sec

One electron gradient       ....       0.006 sec  (  1.1%)
Two electron gradient       ....       0.381 sec  ( 73.5%)
XC gradient                 ....       0.019 sec  (  3.6%)

Maximum memory used throughout the entire SCFGRAD-calculation: 25.4 MB
------------------------------------------------------------------------------
                         ORCA GEOMETRY RELAXATION STEP
------------------------------------------------------------------------------

Reading the OPT-File                    .... done
Getting information on internals        .... done
Copying old internal coords+grads       .... done
Making the new internal coordinates     .... (new redundants).... done
Validating the new internal coordinates .... (new redundants).... done
Calculating the B-matrix                .... done
Calculating the G,G- and P matrices     .... done
Transforming gradient to internals      .... done
Projecting the internal gradient        .... done
Number of atoms                         ....   5
Number of internal coordinates          ....  10
Current Energy                          .... -1894.804680101 Eh
Current gradient norm                   ....     0.575923715 Eh/bohr
Maximum allowed component of the step   ....  0.300
Current trust radius                    ....  0.300
Updating the Hessian (BFGS)             .... done
Forming the augmented Hessian           .... done
Diagonalizing the augmented Hessian     .... done
Last element of RFO vector              ....  0.564416236
Lowest eigenvalues of augmented Hessian:
 -0.700401470  0.250337424  0.292654603  0.292654721  0.294123903
Length of the computed step             ....  1.462555989
Warning: the length of the step is outside the trust region - taking restricted step instead
The input lambda is                     ....    -0.700401
   iter:   1  x=   -0.857017  g=   13.083433 f(x)=     2.049070
   iter:   2  x=   -1.076680  g=    4.043160 f(x)=     0.888132
   iter:   3  x=   -1.360175  g=    1.314903 f(x)=     0.372768
   iter:   4  x=   -1.665111  g=    0.476227 f(x)=     0.145219
   iter:   5  x=   -1.888036  g=    0.212422 f(x)=     0.047354
   iter:   6  x=   -1.963416  g=    0.131803 f(x)=     0.009935
   iter:   7  x=   -1.969514  g=    0.113945 f(x)=     0.000695
   iter:   8  x=   -1.969549  g=    0.112645 f(x)=     0.000004
   iter:   9  x=   -1.969549  g=    0.112638 f(x)=     0.000000
   iter:  10  x=   -1.969549  g=    0.112638 f(x)=    -0.000000
The output lambda is                    ....    -1.969549 (10 iterations)
The final length of the internal step   ....  0.300000000
Converting the step to cartesian space:
 Initial RMS(Int)=    0.0948683298
Transforming coordinates:
 Iter   0:  RMS(Cart)=    0.0810512381 RMS(Int)=    0.0947048270
 Iter   1:  RMS(Cart)=    0.0006660848 RMS(Int)=    0.0009102997
 Iter   2:  RMS(Cart)=    0.0000258259 RMS(Int)=    0.0000343694
 Iter   3:  RMS(Cart)=    0.0000005918 RMS(Int)=    0.0000006692
 Iter   4:  RMS(Cart)=    0.0000000242 RMS(Int)=    0.0000000315
done
Storing new coordinates                 .... done

                                .--------------------.
          ----------------------|Geometry convergence|-------------------------
          Item                value                   Tolerance       Converged
          ---------------------------------------------------------------------
          Energy change      -0.1259147756            0.0000002000      NO
          RMS gradient        0.1517427351            0.0000080000      NO
          MAX gradient        0.4642026775            0.0000300000      NO
          RMS step            0.0948683298            0.0001000000      NO
          MAX step            0.2880447890            0.0002000000      NO
          ........................................................
          Max(Bonds)      0.1524      Max(Angles)    2.05
          Max(Dihed)        0.00      Max(Improp)    0.00
          ---------------------------------------------------------------------

The optimization has not yet converged - more geometry cycles are needed


    ---------------------------------------------------------------------------
                         Redundant Internal Coordinates
                            (Angstroem and degrees)

        Definition                    Value    dE/dq     Step     New-Value
    ----------------------------------------------------------------------------
     1. B(C   1,I   0)                1.9721  0.464203 -0.1524    1.8197   
     2. B(H   2,C   1)                1.0847  0.001642 -0.0008    1.0839   
     3. B(H   3,C   1)                1.0847  0.001641 -0.0008    1.0839   
     4. B(H   4,C   1)                1.0847  0.001640 -0.0008    1.0839   
     5. A(I   0,C   1,H   3)          106.45  0.052589   -2.04    104.40   
     6. A(H   2,C   1,H   3)          112.32 -0.046367    1.87    114.20   
     7. A(I   0,C   1,H   4)          106.44  0.052694   -2.05    104.39   
     8. A(H   2,C   1,H   4)          112.32 -0.046344    1.87    114.19   
     9. A(H   3,C   1,H   4)          112.32 -0.046366    1.87    114.20   
    10. A(I   0,C   1,H   2)          106.44  0.052693   -2.05    104.39   
    ----------------------------------------------------------------------------

         *************************************************************
         *                GEOMETRY OPTIMIZATION CYCLE   3            *
         *************************************************************
---------------------------------
CARTESIAN COORDINATES (ANGSTROEM)
---------------------------------
  I     -2.276326   -6.801341    5.834696
  C     -1.791136   -5.322866    6.778052
  H     -0.985859   -5.665474    7.417561
  H     -1.482827   -4.611068    6.021011
  H     -2.690409   -5.038996    7.312419

----------------------------
CARTESIAN COORDINATES (A.U.)
----------------------------
  NO LB      ZA    FRAG     MASS         X           Y           Z
   0 I    53.0000    0   126.900   -4.301633  -12.852671   11.025978
   1 C     6.0000    0    12.011   -3.384756  -10.058758   12.808662
   2 H     1.0000    0     1.008   -1.863003  -10.706195   14.017159
   3 H     1.0000    0     1.008   -2.802138   -8.713655   11.378062
   4 H     1.0000    0     1.008   -5.084137   -9.522322   13.818470

--------------------------------
INTERNAL COORDINATES (ANGSTROEM)
--------------------------------
 I      0   0   0     0.000000000000     0.00000000     0.00000000
 C      1   0   0     1.819675253552     0.00000000     0.00000000
 H      2   1   0     1.083892668205   104.30881918     0.00000000
 H      2   1   3     1.083891496649   104.31920779   120.00215274
 H      2   1   3     1.083892805458   104.30930072   240.00475964

---------------------------
INTERNAL COORDINATES (A.U.)
---------------------------
 I      0   0   0     0.000000000000     0.00000000     0.00000000
 C      1   0   0     3.438687881887     0.00000000     0.00000000
 H      2   1   0     2.048260301473   104.30881918     0.00000000
 H      2   1   3     2.048258087552   104.31920779   120.00215274
 H      2   1   3     2.048260560843   104.30930072   240.00475964



           ************************************************************
           *        Program running with 128 parallel MPI-processes   *
           *              working on a common directory               *
           ************************************************************
------------------------------------------------------------------------------
                   ___                                                        
                  /   \      - P O W E R E D   B Y -                         
                 /     \                                                     
                 |  |  |   _    _      __       _____    __    __             
                 |  |  |  | |  | |    /  \     |  _  \  |  |  /  |          
                  \  \/   | |  | |   /    \    | | | |  |  | /  /          
                 / \  \   | |__| |  /  /\  \   | |_| |  |  |/  /          
                |  |  |   |  __  | /  /__\  \  |    /   |      \           
                |  |  |   | |  | | |   __   |  |    \   |  |\   \          
                \     /   | |  | | |  |  |  |  | |\  \  |  | \   \       
                 \___/    |_|  |_| |__|  |__|  |_| \__\ |__|  \__/        
                                                                              
                      - O R C A' S   B I G   F R I E N D -                    
                                      &                                       
                       - I N T E G R A L  F E E D E R -                       
                                                                              
 v1 FN, 2020, v2 2021                                                         
------------------------------------------------------------------------------


Reading SHARK input file orca.SHARKINP.tmp ... ok
----------------------
SHARK INTEGRAL PACKAGE
----------------------

Number of atoms                             ...      5
Number of basis functions                   ...     91
Number of shells                            ...     43
Maximum angular momentum                    ...      3
Integral batch strategy                     ... SHARK/LIBINT Hybrid
RI-J (if used) integral strategy            ... SPLIT-RIJ (Revised 2003 algorithm where possible)
Printlevel                                  ...      1
Contraction scheme used                     ... PARTIAL GENERAL contraction
Coulomb Range Separation                    ... NOT USED
Exchange Range Separation                   ... NOT USED
Finite Nucleus Model                        ... NOT USED
Auxiliary Coulomb fitting basis             ... NOT available
Auxiliary J/K fitting basis                 ... NOT available
Auxiliary Correlation fitting basis         ... NOT available
Auxiliary 'external' fitting basis          ... NOT available
Integral threshold                          ...     1.000000e-12
Primitive cut-off                           ...     1.000000e-14
Primitive pair pre-selection threshold      ...     1.000000e-14

Calculating pre-screening integrals         ... done (  0.0 sec) Dimension = 43
Calculating pre-screening integrals (ORCA)  ... done (  0.1 sec) Dimension = 30
Organizing shell pair data                  ... done (  0.0 sec)
Shell pair information
Total number of shell pairs                 ...       946
Shell pairs after pre-screening             ...       898
Total number of primitive shell pairs       ...      1562
Primitive shell pairs kept                  ...      1433
          la=0 lb=0:    297 shell pairs
          la=1 lb=0:    307 shell pairs
          la=1 lb=1:     89 shell pairs
          la=2 lb=0:    100 shell pairs
          la=2 lb=1:     52 shell pairs
          la=2 lb=2:     10 shell pairs
          la=3 lb=0:     25 shell pairs
          la=3 lb=1:     13 shell pairs
          la=3 lb=2:      4 shell pairs
          la=3 lb=3:      1 shell pairs

Calculating one electron integrals          ... done (  0.0 sec)
Calculating Nuclear repulsion               ... done (  0.0 sec) ENN=    138.142081060819 Eh

SHARK setup successfully completed in   0.2 seconds

Maximum memory used throughout the entire GTOINT-calculation: 16.6 MB


           ************************************************************
           *        Program running with 128 parallel MPI-processes   *
           *              working on a common directory               *
           ************************************************************

Diagonalization of the overlap matrix:
Smallest eigenvalue                        ... 2.638e-03
Time for diagonalization                   ...    0.002 sec
Threshold for overlap eigenvalues          ... 1.000e-08
Number of eigenvalues below threshold      ... 0
Time for construction of square roots      ...    0.003 sec
Total time needed                          ...    0.006 sec

-------------------
DFT GRID GENERATION
-------------------

General Integration Accuracy     IntAcc      ... 4.959
Radial Grid Type                 RadialGrid  ... OptM3 with GC (2021)
Angular Grid (max. ang.)         AngularGrid ... 6 (Lebedev-590)
Angular grid pruning method      GridPruning ... 4 (adaptive)
Weight generation scheme         WeightScheme... Becke
Basis function cutoff            BFCut       ... 1.0000e-12
Integration weight cutoff        WCut        ... 1.0000e-14
Angular grids for H and He will be reduced by one unit
Partially contracted basis set               ... off
Rotationally invariant grid construction     ... off

Total number of grid points                  ...    66165
Total number of batches                      ...     1037
Average number of points per batch           ...       63
Average number of grid points per atom       ...    13233
Time for grid setup =    0.839 sec

--------------
SCF ITERATIONS
--------------
ITER       Energy         Delta-E        Max-DP      RMS-DP      [F,P]     Damp
               ***  Starting incremental Fock matrix formation  ***
  0  -1894.8383179497   0.000000000000 1.36050748  0.03468215  0.3962425 0.7000
  1  -1894.8777089423  -0.039390992557 1.11577917  0.02803447  0.2785124 0.7000
                               ***Turning on DIIS***
  2  -1894.9055697418  -0.027860799521 0.86035548  0.02132169  0.1950741 0.7000
  3  -1894.9251772383  -0.019607496486 0.67127853  0.01645845  0.1366887 0.7000
  4  -1894.9389574166  -0.013780178286 1.64579434  0.04039952  0.0957199 0.0000
                      *** Initiating the SOSCF procedure ***
                           *** Shutting down DIIS ***
                      *** Re-Reading the Fockian *** 
                      *** Removing any level shift *** 
ITER      Energy       Delta-E        Grad      Rot      Max-DP    RMS-DP
  5  -1894.97129707  -0.0323396579  0.000812  0.000812  0.049501  0.001692
               *** Restarting incremental Fock matrix formation ***
  6  -1894.97130759  -0.0000105107  0.000137  0.000233  0.007102  0.000255
  7  -1894.97130783  -0.0000002443  0.000121  0.000410  0.009507  0.000223
  8  -1894.97130794  -0.0000001124  0.000045  0.000129  0.004409  0.000110
  9  -1894.97130797  -0.0000000277  0.000012  0.000012  0.000599  0.000015
 10  -1894.97130797  -0.0000000014  0.000003  0.000004  0.000071  0.000003
                  ***Gradient check signals convergence***
              ***Rediagonalizing the Fockian in SOSCF/NRSCF***

               *****************************************************
               *                     SUCCESS                       *
               *           SCF CONVERGED AFTER  11 CYCLES          *
               *****************************************************

Total Energy       :        -1894.97130797 Eh          -51564.79079 eV
  Last Energy change         ...   -6.5711e-11  Tolerance :   1.0000e-09
  Last MAX-Density change    ...    1.6333e-05  Tolerance :   1.0000e-08
             **** THE GBW FILE WAS UPDATED (orca.gbw) ****
             **** DENSITY orca.scfp WAS UPDATED ****
             **** ENERGY FILE WAS UPDATED (orca.en.tmp) ****
             **** THE GBW FILE WAS UPDATED (orca.gbw) ****
             **** DENSITY orca.scfp WAS UPDATED ****
Total SCF time: 0 days 0 hours 0 min 2 sec 

Maximum memory used throughout the entire SCF-calculation: 230.4 MB


-------------------------------------------------------------------------------
                          DFT DISPERSION CORRECTION                            
                                                                               
                              DFTD3 V3.1  Rev 1                                
                          USING Becke-Johnson damping                          
-------------------------------------------------------------------------------
-------------------------   ----------------
Dispersion correction           -0.002436132
-------------------------   ----------------


-------------------------   --------------------
FINAL SINGLE POINT ENERGY     -1894.973744102482
-------------------------   --------------------



           ************************************************************
           *        Program running with 128 parallel MPI-processes   *
           *              working on a common directory               *
           ************************************************************
------------------------------------------------------------------------------
                         ORCA SCF GRADIENT CALCULATION
------------------------------------------------------------------------------

Gradient of the Kohn-Sham DFT energy:
Kohn-Sham wavefunction type      ... RKS
Hartree-Fock exchange scaling    ...    0.250
Number of operators              ...    1
Number of atoms                  ...    5
Basis set dimensions             ...   72
Integral neglect threshold       ... 1.0e-12
Integral primitive cutoff        ... 1.0e-14
SHARK Integral package           ... ON

Nuc. rep. gradient       (SHARK) ... done (  0.0 sec)
HCore & Overlap gradient (SHARK) ... done (  0.0 sec)
Two-Electron gradient    (SHARK) ... done (  0.4 sec)
Exchange-correlation gradient    ... done
Dispersion correction            ... done

[...]
Projecting the internal gradient        .... done
Number of atoms                         ....   5
Number of internal coordinates          ....  10
Current Energy                          .... -1910.113808311 Eh
Current gradient norm                   ....    10.848304945 Eh/bohr
Maximum allowed component of the step   ....  0.300
Current trust radius                    ....  0.300
Updating the Hessian (BFGS)             .... done
Forming the augmented Hessian           .... done
Diagonalizing the augmented Hessian     .... done
Last element of RFO vector              ....  0.035055929
Lowest eigenvalues of augmented Hessian:
 -145.206911333 -0.195930351  0.999710954  4.997745755 12.767641725
Warning: RFO finds a terribly low value for the scaling factor
Trying a QUASI-NEWTON step instead
Doing a quasi-Newton Step:
Inverting the Hessian                   .... done
Computing the step                      .... done
Length of the computed step             ....  0.656610925
Warning: the length of the step is outside the trust region - QNStep is scaled down
Converting the step to cartesian space:
 Initial RMS(Int)=    0.0948683298
Transforming coordinates:
 Iter   0:  RMS(Cart)=    0.0411965462 RMS(Int)=    0.0825479671
 Iter   1:  RMS(Cart)=    0.0102239229 RMS(Int)=    0.0151430642
 Iter   2:  RMS(Cart)=    0.0003019148 RMS(Int)=    0.0006241299
 Iter   3:  RMS(Cart)=    0.0000321023 RMS(Int)=    0.0000747672
 Iter   4:  RMS(Cart)=    0.0000029329 RMS(Int)=    0.0000056644
 Iter   5:  RMS(Cart)=    0.0000002501 RMS(Int)=    0.0000005205
 Iter   6:  RMS(Cart)=    0.0000000245 RMS(Int)=    0.0000000437
done
Storing new coordinates                 .... done

                                .--------------------.
          ----------------------|Geometry convergence|-------------------------
          Item                value                   Tolerance       Converged
          ---------------------------------------------------------------------
          Energy change      -0.4389149029            0.0000002000      NO
          RMS gradient        1.7024404717            0.0000080000      NO
          MAX gradient        3.0227329544            0.0000300000      NO
          RMS step            0.0948683298            0.0001000000      NO
          MAX step            0.2463145633            0.0002000000      NO
          ........................................................
          Max(Bonds)      0.1303      Max(Angles)    5.94
          Max(Dihed)        0.00      Max(Improp)    0.00
          ---------------------------------------------------------------------

The optimization has not yet converged - more geometry cycles are needed


    ---------------------------------------------------------------------------
                         Redundant Internal Coordinates
                            (Angstroem and degrees)

        Definition                    Value    dE/dq     Step     New-Value
    ----------------------------------------------------------------------------
     1. B(C   1,I   0)                0.7803 -1.243252 -0.0101    0.7701   
     2. B(H   2,C   1)                0.6640  0.911431 -0.0611    0.6029   
     3. B(H   3,C   1)                0.5013 -3.022733  0.0081    0.5094   
     4. B(H   4,C   1)                0.9391  1.030314  0.1303    1.0694   
     5. A(I   0,C   1,H   3)           51.75 -0.417932    1.18     52.93   
     6. A(H   2,C   1,H   3)           72.26  0.013651    0.86     73.12   
     7. A(I   0,C   1,H   4)           80.90 -0.191598   -2.57     78.34   
     8. A(H   2,C   1,H   4)          148.39  2.491831   -5.94    142.45   
     9. A(H   3,C   1,H   4)           77.04  2.631250   -2.28     74.76   
    10. A(I   0,C   1,H   2)           85.93  1.750408    1.14     87.07   
    ----------------------------------------------------------------------------

         *************************************************************
         *                GEOMETRY OPTIMIZATION CYCLE  68            *
         *************************************************************
---------------------------------
CARTESIAN COORDINATES (ANGSTROEM)
---------------------------------
  I     -2.013797   -5.974962    6.501797
  C     -1.673788   -5.446927    6.947519
  H     -1.155619   -5.588148    6.673514
  H     -1.747287   -5.424397    6.443975
  H     -2.636067   -5.005311    6.796935

----------------------------
CARTESIAN COORDINATES (A.U.)
----------------------------
  NO LB      ZA    FRAG     MASS         X           Y           Z
   0 I    53.0000    0   126.900   -3.805524  -11.291042   12.286616
   1 C     6.0000    0    12.011   -3.163001  -10.293199   13.128908
   2 H     1.0000    0     1.008   -2.183804  -10.560070   12.611114
   3 H     1.0000    0     1.008   -3.301893  -10.250624   12.177348
   4 H     1.0000    0     1.008   -4.981444   -9.458666   12.844345

--------------------------------
INTERNAL COORDINATES (ANGSTROEM)
--------------------------------
 I      0   0   0     0.000000000000     0.00000000     0.00000000
 C      1   0   0     0.770126730929     0.00000000     0.00000000
 H      2   1   0     0.602927036131    87.46734066     0.00000000
 H      2   1   3     0.509378067796    52.73423210    68.75237610
 H      4   2   1     1.044099220746    78.83705480    88.37168049

---------------------------
INTERNAL COORDINATES (A.U.)
---------------------------
 I      0   0   0     0.000000000000     0.00000000     0.00000000
 C      1   0   0     1.455328609867     0.00000000     0.00000000
 H      2   1   0     1.139366977024    87.46734066     0.00000000
 H      2   1   3     0.962585046761    52.73423210    68.75237610
 H      4   2   1     1.973061583850    78.83705480    88.37168049



           ************************************************************
           *        Program running with 128 parallel MPI-processes   *
           *              working on a common directory               *
           ************************************************************
------------------------------------------------------------------------------
                   ___                                                        
                  /   \      - P O W E R E D   B Y -                         
                 /     \                                                     
                 |  |  |   _    _      __       _____    __    __             
                 |  |  |  | |  | |    /  \     |  _  \  |  |  /  |          
                  \  \/   | |  | |   /    \    | | | |  |  | /  /          
                 / \  \   | |__| |  /  /\  \   | |_| |  |  |/  /          
                |  |  |   |  __  | /  /__\  \  |    /   |      \           
                |  |  |   | |  | | |   __   |  |    \   |  |\   \          
                \     /   | |  | | |  |  |  |  | |\  \  |  | \   \       
                 \___/    |_|  |_| |__|  |__|  |_| \__\ |__|  \__/        
                                                                              
                      - O R C A' S   B I G   F R I E N D -                    
                                      &                                       
                       - I N T E G R A L  F E E D E R -                       
                                                                              
 v1 FN, 2020, v2 2021                                                         
------------------------------------------------------------------------------


Reading SHARK input file orca.SHARKINP.tmp ... ok
----------------------
SHARK INTEGRAL PACKAGE
----------------------

Number of atoms                             ...      5
Number of basis functions                   ...     91
Number of shells                            ...     43
Maximum angular momentum                    ...      3
Integral batch strategy                     ... SHARK/LIBINT Hybrid
RI-J (if used) integral strategy            ... SPLIT-RIJ (Revised 2003 algorithm where possible)
Printlevel                                  ...      1
Contraction scheme used                     ... PARTIAL GENERAL contraction
Coulomb Range Separation                    ... NOT USED
Exchange Range Separation                   ... NOT USED
Finite Nucleus Model                        ... NOT USED
Auxiliary Coulomb fitting basis             ... NOT available
Auxiliary J/K fitting basis                 ... NOT available
Auxiliary Correlation fitting basis         ... NOT available
Auxiliary 'external' fitting basis          ... NOT available
Integral threshold                          ...     1.000000e-12
Primitive cut-off                           ...     1.000000e-14
Primitive pair pre-selection threshold      ...     1.000000e-14

Calculating pre-screening integrals         ... done (  0.0 sec) Dimension = 43
Calculating pre-screening integrals (ORCA)  ... done (  0.1 sec) Dimension = 30
Organizing shell pair data                  ... done (  0.0 sec)
Shell pair information
Total number of shell pairs                 ...       946
Shell pairs after pre-screening             ...       933
Total number of primitive shell pairs       ...      1562
Primitive shell pairs kept                  ...      1534
          la=0 lb=0:    315 shell pairs
          la=1 lb=0:    322 shell pairs
          la=1 lb=1:     91 shell pairs
          la=2 lb=0:    100 shell pairs
          la=2 lb=1:     52 shell pairs
          la=2 lb=2:     10 shell pairs
          la=3 lb=0:     25 shell pairs
          la=3 lb=1:     13 shell pairs
          la=3 lb=2:      4 shell pairs
          la=3 lb=3:      1 shell pairs

Calculating one electron integrals          ... done (  0.0 sec)
Calculating Nuclear repulsion               ... done (  0.0 sec) ENN=    333.161666366937 Eh

SHARK setup successfully completed in   0.2 seconds

Maximum memory used throughout the entire GTOINT-calculation: 16.6 MB


           ************************************************************
           *        Program running with 128 parallel MPI-processes   *
           *              working on a common directory               *
           ************************************************************

Diagonalization of the overlap matrix:
Smallest eigenvalue                        ... 2.920e-04
Time for diagonalization                   ...    0.001 sec
Threshold for overlap eigenvalues          ... 1.000e-08
Number of eigenvalues below threshold      ... 0
Time for construction of square roots      ...    0.003 sec
Total time needed                          ...    0.006 sec

-------------------
DFT GRID GENERATION
-------------------

General Integration Accuracy     IntAcc      ... 4.959
Radial Grid Type                 RadialGrid  ... OptM3 with GC (2021)
Angular Grid (max. ang.)         AngularGrid ... 6 (Lebedev-590)
Angular grid pruning method      GridPruning ... 4 (adaptive)
Weight generation scheme         WeightScheme... Becke
Basis function cutoff            BFCut       ... 1.0000e-12
Integration weight cutoff        WCut        ... 1.0000e-14
Angular grids for H and He will be reduced by one unit
Partially contracted basis set               ... off
Rotationally invariant grid construction     ... off

Total number of grid points                  ...    65142
Total number of batches                      ...     1021
Average number of points per batch           ...       63
Average number of grid points per atom       ...    13028
Time for grid setup =    0.828 sec

--------------
SCF ITERATIONS
--------------
ITER       Energy         Delta-E        Max-DP      RMS-DP      [F,P]     Damp
               ***  Starting incremental Fock matrix formation  ***
  0  -1904.3455443633   0.000000000000113.48785976  3.65468034  1.9001958 0.7000
  1  -1906.1094374101  -1.76389304685280.42755315  2.58377819  1.3302859 0.7000
  2  -1907.3479078710  -1.23847046084656.45200939  1.81306135  0.9307174 0.7000
  3  -1908.2169743856  -0.86906651456239.47066354  1.26991989  0.6514472 0.7000
                      *** Initiating the SOSCF procedure ***
                      *** Re-Reading the Fockian *** 
                      *** Removing any level shift *** 
ITER      Energy       Delta-E        Grad      Rot      Max-DP    RMS-DP
  4  -1908.82657985  -0.6096054607  0.002742  0.002742 91.765059  2.961593
               *** Restarting incremental Fock matrix formation ***
  5  -1910.25318751  -1.4266076657  0.003212  0.006731  1.069219  0.041518
  6  -1910.25339966  -0.0002121450  0.000670  0.003705  0.490041  0.013383
  7  -1910.25341407  -0.0000144099  0.000449  0.000878  0.103188  0.003446
  8  -1910.25341888  -0.0000048088  0.000100  0.000228  0.087579  0.001971
  9  -1910.25341919  -0.0000003134  0.000054  0.000122  0.038806  0.000818
 10  -1910.25341926  -0.0000000727  0.000007  0.000048  0.002109  0.000088
 11  -1910.25341926  -0.0000000012  0.000002  0.000009  0.000301  0.000018
 12  -1910.25341926  -0.0000000001  0.000001  0.000003  0.000064  0.000004
                  ***Gradient check signals convergence***
              ***Rediagonalizing the Fockian in SOSCF/NRSCF***

               *****************************************************
               *                     SUCCESS                       *
               *           SCF CONVERGED AFTER  13 CYCLES          *
               *****************************************************

Total Energy       :        -1910.25341926 Eh          -51980.63818 eV
  Last Energy change         ...   -1.3188e-11  Tolerance :   1.0000e-09
  Last MAX-Density change    ...    3.2527e-05  Tolerance :   1.0000e-08
================================================================================
                                        WARNING
Check your MOs and check whether a frozen core calculation is appropriate
MO 1 should be a C  p core orbital but seems to be delocalized with a I  s orbital (34.0% vs. 30.5%)
================================================================================
================================================================================
                                        WARNING
Check your MOs and check whether a frozen core calculation is appropriate
MO 3 should be a I  p core orbital but seems to be delocalized with a H  p orbital (79.2% vs.  9.2%)
================================================================================
================================================================================
                                        WARNING
Check your MOs and check whether a frozen core calculation is appropriate
MO 4 should be a I  p core orbital but seems to be delocalized with a H  p orbital (82.6% vs.  5.9%)
================================================================================
================================================================================
                                        WARNING
Check your MOs and check whether a frozen core calculation is appropriate
MO 14 should be a I  f core orbital but seems to be delocalized with a I  d orbital (71.9% vs. 18.3%)
================================================================================
================================================================================
                                        WARNING
Check your MOs and check whether a frozen core calculation is appropriate
MO 21 should be a I  p core orbital but seems to be delocalized with a I  f orbital (63.7% vs. 22.7%)
================================================================================
================================================================================
                                        WARNING
Check your MOs and check whether a frozen core calculation is appropriate
MO 23 should be a I  p core orbital but seems to be delocalized with a I  s orbital (72.5% vs. 31.7%)
================================================================================

================================================================================
MOs in valence range (operator=0) identified as core orbitals.
Correct this by swapping MOs
                           MOs 19 and 2
                           MOs 21 and 10
                           MOs 23 and 11
                                               done
================================================================================

             **** THE GBW FILE WAS UPDATED (orca.gbw) ****
             **** DENSITY orca.scfp WAS UPDATED ****
             **** ENERGY FILE WAS UPDATED (orca.en.tmp) ****
             **** THE GBW FILE WAS UPDATED (orca.gbw) ****
             **** DENSITY orca.scfp WAS UPDATED ****
Total SCF time: 0 days 0 hours 0 min 2 sec 

Maximum memory used throughout the entire SCF-calculation: 230.4 MB


-------------------------------------------------------------------------------
                          DFT DISPERSION CORRECTION                            
                                                                               
                              DFTD3 V3.1  Rev 1                                
                          USING Becke-Johnson damping                          
-------------------------------------------------------------------------------
-------------------------   ----------------
Dispersion correction           -0.002481275
-------------------------   ----------------


-------------------------   --------------------
FINAL SINGLE POINT ENERGY     -1910.255900537900
-------------------------   --------------------



           ************************************************************
           *        Program running with 128 parallel MPI-processes   *
           *              working on a common directory               *
           ************************************************************
------------------------------------------------------------------------------
                         ORCA SCF GRADIENT CALCULATION
------------------------------------------------------------------------------

Gradient of the Kohn-Sham DFT energy:
Kohn-Sham wavefunction type      ... RKS
Hartree-Fock exchange scaling    ...    0.250
Number of operators              ...    1
Number of atoms                  ...    5
Basis set dimensions             ...   72
Integral neglect threshold       ... 1.0e-12
Integral primitive cutoff        ... 1.0e-14
SHARK Integral package           ... ON

Nuc. rep. gradient       (SHARK) ... done (  0.0 sec)
HCore & Overlap gradient (SHARK) ... done (  0.0 sec)
Two-Electron gradient    (SHARK) ... done (  0.4 sec)
Exchange-correlation gradient    ... done
Dispersion correction            ... done

------------------
CARTESIAN GRADIENT
------------------

   1   I   :    0.234802040    0.822020735    1.819316508
   2   C   :   -2.992571719   -1.779645016  -10.085448557
   3   H   :    1.689903569    0.780204212    2.950205839
   4   H   :    2.199375646   -0.862086537    3.038049227
   5   H   :   -1.131509534    1.039506621    2.277876994

Difference to translation invariance:
           :    0.0000000019    0.0000000144    0.0000000118

Difference to rotation invariance:
           :   -0.0005594860    0.0006263214    0.0011842018

Norm of the cartesian gradient     ...   12.3453499454
RMS gradient                       ...    3.1875556494
MAX gradient                       ...   10.0854485572

-------
TIMINGS
-------

Total SCF gradient time            ...        0.557 sec

One electron gradient       ....       0.006 sec  (  1.0%)
Two electron gradient       ....       0.421 sec  ( 75.5%)
XC gradient                 ....       0.018 sec  (  3.3%)

Maximum memory used throughout the entire SCFGRAD-calculation: 25.5 MB

ORCA finished by error termination in SCF gradient
Calling Command: mpirun -np 128  /mnt/proj3/open-27-19/spe0047/orca_5_0_4_linux_x86-64_openmpi411/orca_scfgrad_mpi orca.scfgrad.inp orca 
[file orca_tools/qcmsg.cpp, line 465]: 
  .... aborting the run

